name,smiles,Density,Vint,Veff,pc
LEWHAW,[N-]=[N+]=CC(=O)C1OC1c1ccncc1,1.3856,150.513,226.5753351,0.664295608
VAPPAF,CCOC(=O)C1C2C(=O)C3COC(=O)N3C12,1.4766,168.139,253.1090461,0.664294708
FINJOC,CC(=O)N1C2NC3C4NC2N(C(C)=O)C1C(N3C(C)=O)N4C(C)=O,1.4881,249.191,375.12152,0.664294067
AROQIJ,O=C1c2ccccc2C2Oc3ccccc3CN12,1.4132,185.059,278.5828983,0.664287008
MUTRID,C/C(=C\C=C(/C#N)C(N)=O)N(C)C,1.3149,150.256,226.1945353,0.664277763
MIYPEP,O=CNCNC=O,1.4073,79.985,120.4096392,0.664274061
QAQCOC,Oc1ccccc1-c1cc2cccccc-2n1,1.3433,181.548,273.3061837,0.66426598
INAJOX,O=C(N/N=C/c1cccc2ccccc12)c1ccncc1,1.3522,224.42,337.850018,0.664259251
OXENUC,CCCn1c2c(c3oc(=O)c4ccccc4c31)C(=O)c1ccccc1C2=O,1.4236,276.697,416.5499011,0.66425895
HALSUI,Nc1ccc2c(=O)c3ccccc3oc2c1,1.4085,165.291,248.8404425,0.664244921
MAJQAR,Cc1ccc2oc(=O)cc(Cn3ccnn3)c2c1,1.4031,189.527,285.3295996,0.664238832
PIXVUP,C/C(=N/O)c1cc2ccccc2o1,1.3767,140.263,211.1644972,0.664235711
TIZYEJ,C#CCN1C(=O)O/C(=C\c2ccccc2)C1=O,1.3732,182.384,274.5797543,0.664229599
ULIKEG,CN(C)c1cccc2c1C(=O)c1ccccc1C2=O,1.3702,202.132,304.3115897,0.664227084
UNODIN,Oc1ccc2c(/C=N/c3ccccc3)c(O)ccc2c1/C=N/c1ccccc1,1.3622,296.47,446.341812,0.664221886
ESEPUN01,O=C(NCCNC(=O)c1ccncc1)c1ccncc1,1.3834,215.364,324.2355419,0.664220828
ZARJIO,c1ccc2oc3nc4ccccc4c-3cc2c1,1.3806,175.019,263.4977605,0.664214374
NAYCEW,CN1C(=O)CC(=O)N(C)c2ccccc21,1.3891,162.05,243.9793037,0.664195682
TOJQIU,O=C1C2COCN2C(=O)C23C=CC(O2)C(O)c2ccccc2N13,1.4999,230.968,347.7420528,0.664193468
YIMWIC,COc1ccc(/C=C2\C(=O)ON=C2C)cc1,1.376,173.999,261.9715894,0.664190344
OFASUJ,COC(=O)C(N)=O,1.4515,78.287,117.8687851,0.664187723
JAXRAC,O=C1OCCN1C(=O)c1ccccc1,1.4165,148.765,223.9825757,0.664181129
CIBPIM,O=C(O)c1ccccc1C(=O)Nc1ccccc1,1.3835,192.186,289.3583716,0.664179851
RESNOS,N#Cc1cccc(N2C(=O)c3cccc4cccc(c34)C2=O)c1,1.3882,236.822,356.5639405,0.664178211
MEGJOX,COc1ccc2cc1Cn1ccc(=O)n(c1=O)Cc1cccc(c1)C2=O,1.424,269.623,405.9502375,0.664177466
IFUHIC,O=C(NCCNC(=O)c1ccc2ccccc2n1)c1ccc2ccccc2n1,1.3825,295.289,444.5999462,0.664167872
OBADUT,CCOC(=O)c1c(=O)on2c1ccc1ccccc12,1.4352,197.551,297.4417937,0.66416692
OHISIH,COc1cc2c3c(c1)C(=O)c1ccccc1C3=NCC2,1.3924,208.393,313.7711437,0.664156039
MALOAM,NC(=O)CC(N)=O,1.4269,78.872,118.7556839,0.664153474
EZUTOK,COc1ccc(/C=C(\C#N)C(N)=O)c(OC)c1,1.3665,187.313,282.0343988,0.664149482
DEXTIK,CCOC(=O)c1c2c(c3ccc4ccccc4n13)C(=O)c1ccccc1-2,1.3979,269.118,405.2072995,0.664148944
MUTDOX,COC(=O)c1cccc(CO)n1,1.4065,130.996,197.2391885,0.664147936
NAGGUA,COc1ccc(-n2cnnn2)cc1,1.4011,138.593,208.6799857,0.664141314
FOKSOO,COC(=O)/C(NC(=O)c1ccccc1)=C(\NC(=O)c1ccccc1)C(=O)OC,1.4137,298.1,448.8523994,0.664138145
TYMCXA,Cc1cn(C2CC(O)C(C(=O)O)O2)c(=O)[nH]c1=O,1.5089,187.161,281.8139517,0.664129646
YARYAS,O=C(N/N=C/c1cccc(O)c1O)c1ccco1,1.4414,188.265,283.4840938,0.664111335
RFURPD,O=c1ccccn1C1OC(CO)C(O)C1O,1.4702,170.336,256.4875569,0.66411019
SEJZIQ,O=C1C=C(N2CCOCC2)c2ccccc2C1=O,1.4028,191.103,287.7633986,0.664097661
OKOSEM,CCOC(=O)c1cnc(CN2C(=O)c3ccccc3C2=O)o1,1.4446,229.071,344.9424868,0.664084619
ROBZEN,CNc1cc2ccccc2oc1=O,1.3885,139.038,209.3699412,0.664078135
MALXEG,CCOC(=O)c1ccc(/C=C(\C#N)c2ccc(C(=O)OCC)cc2)cc1,1.3398,287.363,432.7269864,0.664074599
VUNTAZ,Nc1ncnc2c1ncn2C=C=CCO,1.413,158.492,238.6665442,0.664072967
BONGAO,C[N+](C)(O)CC(=O)[O-],1.3958,94.062,141.6450197,0.66406853
KATVAE,Oc1ccc(CC/N=C/c2c(O)ccc3ccccc23)cc1,1.3481,238.14,358.6111694,0.66406186
UPAQOT,C#CC1(CO)OCC(n2cc(C)c(=O)[nH]c2=O)O1,1.4553,191.007,287.6349319,0.664060511
HOHGOB,c1ccc2cc(-c3nnc(-c4ccc5ccc(-c6nnc(-c7ccc8ccccc8c7)o6)cc5c4)o3)ccc2c1,1.3882,410.018,617.4420215,0.664059111
LADZAS01,Oc1ccc(/N=C/c2ccccn2)cc1,1.3383,163.204,245.782341,0.664018413
KEXFUO,Cc1cn(CCCCCOc2c3occc3cc3ccc(=O)oc23)c(=O)[nH]c1=O,1.436,304.18,458.0898508,0.664018204
RIBFIM,OCC1OC(n2ccnc2)C(O)C1O,1.4714,149.936,225.8069602,0.66400079
SODSAH,O=C(O)c1ccccc1-n1cc(-c2ccccc2)nn1,1.393,209.824,316.0088737,0.663981354
AHEFEA,COc1ccccc1C1C2=C(CCCC2=O)n2c(=O)c3ccccc3c(=O)n21,1.4256,289.357,435.7987701,0.66396929
EZUQIB,O=C(Cn1cc2c(=O)oc3ccccc3c2n1)c1ccccc1,1.415,236.947,356.8644565,0.663969178
WIQDEF,N#CCc1ccc(O)cc1,1.2966,113.142,170.4052288,0.663958499
COMWOQ06,O=Cc1c[nH]c2ccccc12,1.357,117.854,177.5052466,0.663946572
ZUSZOC,COC(=O)C12c3cccn3C(=O)C1C1C(=O)n3cccc3C12C(=O)OC,1.4693,265.702,400.1863882,0.663945621
DMEGLY,CC(=N\O)/C(C)=N/O,1.3797,92.74,139.6875218,0.663910411
CUJJID,O=Cc1cc(-c2ccccn2)cc(-c2ccccn2)c1,1.3405,213.912,322.2034282,0.663903551
TUPHUI,N#CCN(CC#N)N=O,1.3398,102.067,153.7381333,0.663901648
REMDOD,Cn1ccn2c(=N)c(C#N)c3c(c12)C(=O)N(c1ccccc1)C3=O,1.4199,246.202,370.8442641,0.663895936
POFWOX,COc1cccc(/C=N/c2ccccc2O)c1O,1.3823,193.874,292.0310319,0.663881501
CEKVIX,CO/N=c1\cc[nH]c(=O)cc1,1.3873,120.83,182.0143256,0.663848846
ULANEA,COC(=O)C1=C(N)C(=O)c2ccccc2/C1=N/c1cc2ccccc2cc1C(=O)OC,1.4145,322.744,486.1719915,0.663847374
LERTAD,CC(=O)NN(CC(=O)Nc1ccccc1)C(N)=O,1.4095,195.611,294.662649,0.663847286
ICOXUT,CN1C(=O)/C(=C\c2c[nH]c3ccccc23)N(C)C1=O,1.3982,201.128,302.975504,0.663842447
DZURID,O=c1cc(O)ccn1C1OC(CO)C(O)C1O,1.5,178.639,269.0994409,0.663840101
KUZMAU,COc1ccc(/C=[NH+]/c2ccc(O)c(C(=O)[O-])c2)cc1,1.3992,213.573,321.7287384,0.663829414
SIFSEG,CCOC(=O)C1=NOC2C(=O)N(c3ccccc3)C(=O)C12,1.4518,218.733,329.505935,0.663821124
DZSNON,O=C1CCC2(CCNC2=O)N1,1.4357,118.299,178.2096972,0.663819095
NAHDUV,CN(C)/C=C/C(=O)c1cccc(-c2ccncn2)n1,1.3463,208.068,313.4415015,0.663817647
TEHWEJ,N#CCc1cn(C=O)c2ccccc12,1.3385,151.582,228.3572047,0.663793377
WEWPIZ,NC(=O)c1ccco1,1.4151,86.486,130.2945278,0.66377308
BIPPAR,CC(=O)NC(CC(=O)O)C(=O)NCCCC(=O)O,1.434,199.927,301.2018471,0.66376419
JOFWIM02,O=C(Nc1cccnc1)c1ccccc1,1.3443,162.411,244.6853434,0.663754509
WAFVEG,O=C(N/N=C/c1cccc(O)c1O)c1ccncc1,1.4173,199.93,301.2115405,0.663752789
MBYIOZ01,CC1=NOC(=O)/C1=C\c1ccccc1,1.3544,152.233,229.3542258,0.663746218
IVIROW,N#CC(C#N)=Cc1cc(-c2ccoc2)c(C=C(C#N)C#N)cc1-c1ccoc1,1.3391,298.028,449.0110311,0.663743159
PIKLIE,O=C1c2cccnc2N(c2ccccc2)C2=NCCN12,1.4098,206.476,311.0840579,0.663730573
TUFYUQ,COC(=O)C(=O)c1cn(C(=O)OC)c2ccccc12,1.43,201.216,303.1625298,0.663723186
SEZJIR,CC(=O)c1cnc2ccccc2c1N,1.3568,151.159,227.7441826,0.663722771
LOHLUR,CC(=O)N/N=C/c1c(O)ccc2ccccc12,1.3677,183.799,276.9364998,0.663686441
FONGUL,[NH3+]c1ccc(CC(=O)[O-])cc1,1.3679,121.711,183.3875015,0.663682088
PABVET,COC(=O)C1=C2C=Cc3cccc4c3N2C(C(=O)OC)(C4)C(C(=O)OC)=C1C(=O)OC,1.4654,319.713,481.7383903,0.663665189
OYIPAO,COC(=O)c1nn(-c2ccc(OC)cc2)c2c1CCC2=O,1.4183,222.306,334.9714093,0.66365664
RAJCUD,O=C1CN=C(c2ccccc2)CO1,1.3818,139.62,210.3851233,0.66364008
NOCPAW,COC(=O)C12N=NCC1CC1C(=O)OCC12,1.4768,167.213,251.9682836,0.663627174
BOWQIP,CC(=O)N/N=C/c1cccc(O)c1O,1.4107,151.603,228.4477334,0.663622255
YIFSAI,NC(=O)NC(c1ccccc1)N1C(=O)CCC1=O,1.4194,191.842,289.0848986,0.6636182
ODITOL,O=C(O)c1ccc(Cn2cncn2)cc1,1.4119,158.493,238.8392753,0.663596889
JAXVEK,COC(=O)c1nc[nH]n1,1.4632,95.675,144.1768697,0.663594654
CARWID02,O=c1[nH]c(-c2ccccc2O)nc2ccccc12,1.4133,185.627,279.732585,0.663587333
OZIFIO,N#Cc1ccc(NC(=O)Cc2ccccc2)cc1,1.3165,197.619,297.8042503,0.663586902
DMECDC,CN1C(=O)c2ccccc2NC(=O)c2ccccc2N(C)C(=O)c2ccccc21,1.3868,306.033,461.1824851,0.66358331
VEPYEW,Nc1nonc1Nc1c(-c2ccccc2)oc2ccc3ccccc3c12,1.4175,265.953,400.7835263,0.663582664
JUDFOG,O=[N+]1C=CC=C/C1=c1\cccc\c1=C(\[O-])c1ccccc1,1.3558,223.586,336.9391801,0.6635797
AMIMZA10,CC(=O)C(C(C)=O)=C1NCCN1,1.3742,134.784,203.1218533,0.66356228
TEGVAF,O=c1c2ccccc2oc2cc(N3c4ccccc4Oc4ccccc43)ccc12,1.4063,295.48,445.2967959,0.663557436
BALHIS01,[NH3+]CCC(=O)NC(Cc1c[nH]cn1)C(=O)[O-],1.4209,175.344,264.2498444,0.663553844
BUVGAC,O=C1NC(=O)C2c3ccccc3NC12,1.447,143.207,215.8189868,0.663551443
CAPLAC18,O=C1CCCCCN1,1.3247,94.064,141.7584333,0.663551351
APOYAH,O=c1oc2ccccc2cc1-n1cc(-c2ccccc2)nn1,1.4062,226.522,341.3844128,0.663539375
UMUGAK,O=C1c2cccc3cccc(c23)C(=O)N1CC/N=C/c1ccccn1,1.3867,261.514,394.1232697,0.663533519
NOKVAN,Oc1ccc(/C=C/c2nccc3c(N4CCC4)cncc23)cc1,1.3622,245.203,369.5416029,0.663532869
TOTDAK,Cc1cn(C2CC(O)C(O)C(CO)O2)c(=O)[nH]c1=O,1.4933,200.775,302.5853135,0.663531874
TOHFIF,CCc1c2oc(=O)c(C#N)cc2c2ccccn12,1.3853,189.362,285.3866039,0.663527991
NOGGEX,Cc1ccc(N2COc3c(c4ccccc4oc3=O)C2)cc1,1.3987,230.895,347.987763,0.663514711
BEKVOC,CC(=O)N(O)c1ccc2c(c1)Cc1ccccc1-2,1.369,192.434,290.0223086,0.663514476
IYOXOM,CC(=O)n1cc(CN2C(=O)c3ccccc3C2=O)c2ccccc21,1.3973,250.833,378.0416479,0.66350626
FUDQOM,COC(=O)/C=C1\NC(=O)c2ccc(Oc3ccccc3)cc21,1.405,231.394,348.7667265,0.66346352
FUWFAG01,O=C(c1ccccc1)c1ccc(-n2c3ccccc3c3ccccc32)cc1,1.3353,286.41,431.6975676,0.663450576
RUJKOX,COc1ccccc1/C=N/NC(=O)c1cc2ccccc2cc1O,1.3817,255.248,384.7324188,0.663442922
OVANEH,O=C1NC(=O)c2oc3ccc4ccccc4c3c3c(ccc4ccccc43)oc21,1.432,291.648,439.6003147,0.663439015
KARYOR,CC1NC(=O)CN(O)C1=O,1.4772,107.435,161.9382812,0.663431767
LIVROY,O/N=C/c1c(O)ccc2ccccc12,1.3805,149.284,225.0180103,0.663431339
LENRUU,COc1ccc(O)c(-c2nc3ncccc3o2)c1,1.4321,186.218,280.6927012,0.663423022
HAVHOB,Nc1ccc(-c2ccc(=O)[nH]n2)cc1,1.385,148.804,224.3003737,0.663413964
KEKVIH,C=CCOc1ccc2c(OC)c3ccoc3nc2c1OC,1.3995,224.425,338.2902746,0.663409553
TUQNEZ,C/C(=N\NC(=O)c1ccc(O)cc1)c1ccccc1O,1.3866,214.585,323.4738169,0.663376721
MUNDUU,Nc1ccccc1C(=O)N/N=C/c1ccccc1O,1.3821,203.328,306.5048475,0.663376131
LENWEI,COC(=O)c1cn(C)c(=O)cc1-c1ccccc1,1.3689,195.619,294.8896893,0.663363309
POJTOX,c1ccc(C2=NC(C3=NOC(c4ccccc4)C3)CO2)cc1,1.366,235.568,355.1218358,0.663344172
VEMDIA,O=C1Nc2ccccc2C(=O)N2CCCC12,1.422,167.392,252.3479964,0.66333794
BAGMEC,O=NN1CCN(N=O)CCN(N=O)CC1,1.468,162.151,244.4487907,0.663333206
FETSEC,Cc1cc(=O)nc(N)[nH]1,1.4125,97.526,147.0250117,0.663329313
RAQQAE,CO/N=C1\NC(=O)c2ccccc21,1.3985,138.672,209.0546112,0.663329066
GAQBUY,COc1ccc(/C=N/c2cccnc2)c(O)c1,1.3646,184.117,277.5656242,0.663327819
MIZTZO,Cc1nc(C)n2c(=O)[nH]cnc12,1.4348,125.959,189.8901087,0.663325757
QIMQAH,O=C1c2ccccc2C(=O)N1CNc1ccccn1,1.4044,198.499,299.2546008,0.66331144
CEZQUW,COC(=O)c1[nH]c2ccccc2c(=O)c1C(=O)OC,1.445,199.003,300.0155139,0.663309032
FALGUX,COC(=O)c1nc[nH]c1C#N,1.4132,117.722,177.4794763,0.663299231
AQOZUD01,[O-][n+]1ccccc1-c1ccccc1,1.3293,141.749,213.7036095,0.663297173
MOSCEF,Cc1nc2c(O)cccc2c(=O)[nH]1,1.4308,135.534,204.3352486,0.663292314
UBEKOF,O=C1CCc2ccccc2-c2cc3ccccc3n21,1.3669,199.114,300.1929806,0.663286662
QOTYAZ,CN1C(=O)OC2COC3CC(=O)OC3C21,1.5232,154.069,232.2830998,0.663281143
FOCPAR,COC(=O)c1[nH]c2c(C)cccc2c1C(=O)OC,1.401,194.254,292.8682733,0.663281133
ACYGLY11,CC(=O)NCC(=O)O,1.4228,90.607,136.6045334,0.663279598
ATONEC,O=C1c2ccccc2CN1c1ccccc1,1.3461,171.081,257.9340291,0.663274251
YIBGAU,COC(=O)c1ccc(C23OC2C(=O)c2c(ccc4c5ccccc5n(C(C)C)c24)C3=O)cc1,1.3973,346.155,521.8916196,0.663269896
BEMTEU,O=C1CC2(O)c3ccccc3N3C(=O)c4ccccc4N1C32,1.451,221.714,334.2770545,0.663264191
ASEXII,CC1CC(=O)c2c(n3c(=O)c4ccccc4nc3c3ccccc23)C1,1.3997,258.193,389.2820088,0.663254387
TIVCUZ,O=C(O)c1cc(C(=O)c2ccco2)n2c1CCC2,1.4353,188.054,283.5374223,0.663242257
NAVPOQ,O=C(N/N=C/c1ccccc1O)c1nc2ccccc2n2cccc12,1.4067,258.461,389.694639,0.663239814
MUPYII,COc1cc(O)c2c(=O)c3ccccc3n(C)c2c1OC,1.4183,221.393,333.8061336,0.663238262
UFIQOP,CC1(C(=O)[O-])Nc2cccc[n+]2C(C)(O)C1O,1.4503,180.812,272.6202508,0.663237597
CEFHEB,COc1cccc(NC2(C(N)=O)OC(=O)c3ccccc32)c1,1.4243,230.507,347.5511828,0.66323181
GEQWIL,COC12C=CC34C(C1)C(O)c1ccccc1N3C(=O)C(=O)N4C2,1.4651,234.622,353.7584725,0.663226518
KUVKES,COc1ccc(OC)c(/C=N/NC(=O)c2ccc(O)cc2O)c1,1.4202,245.135,369.6137822,0.663219317
EWUFEH,Oc1cccc(-n2cnnc2)c1,1.3964,127.027,191.5313871,0.663217668
ZABQEB,O=C1c2cccc3cccc(c23)C(=O)N1CCCO,1.4012,200.498,302.3135138,0.663212165
ROLKIM,O=Nc1c(-c2ccccc2)cc2ccccn12,1.3562,180.343,271.9251637,0.663208206
ZZZPRC05,CN1C(=O)C(=O)c2ccccc21,1.3887,127.72,192.5799487,0.663205078
GILPAV,CCOC(=O)c1c(N)c(C#N)c2c(c1C(=O)OCC)C(=O)c1ccccc1-2,1.4106,284.273,428.6362494,0.663203358
OXUCOA,O=[N+]1/C(=C2\C=CC=C[N-]2)C=Cc2ccc3ccc4ccc5c6ccccc6c6ccccc6c5c4c3c21,1.3793,376.995,568.4512792,0.663196678
FUBMOH,O=C(c1ccccc1)c1ccccc1-c1nc2ccccc2c(=O)o1,1.3872,259.677,391.5548554,0.663194432
BEYJUN,O=C(c1ccc(-n2ccnc2)cc1)c1ccc(-n2ccnc2)cc1,1.3677,252.928,381.3864835,0.663180293
AXALAN,O=C1C(=O)N(c2ccccc2)c2ccccc21,1.3774,178.34,268.9262112,0.663155886
FERTED,O=Cc1cnc2c(OCc3ccccc3)cccn12,1.3749,201.912,304.4733805,0.663151569
SOMVOG,C[N+]1(CC(=O)[O-])CCC(O)CC1,1.3821,137.924,207.9867478,0.663138404
CESCAH,O/N=C/c1cc2ccccc2c2ccccc12,1.3421,181.395,273.5505526,0.663113265
POPXIE,Oc1cc2ccccc2cc1/N=C/c1ccc2ccccc2c1O,1.3668,252.258,380.4147856,0.663113027
ARUWUG01,CC1=N/C(=C\c2cccc(O)c2)C(=O)N1C,1.3659,174.207,262.712388,0.663109195
GITBAN,COc1ccc(/C=N/NC(=O)c2ccc(O)cc2O)cc1,1.4052,224.187,338.0941857,0.663090374
KILVAE,N#C/C(C(=O)CCC[n+]1ccccc1)=C1\[N-]c2ccccc2C(=O)N1,1.373,266.361,401.6974779,0.663088555
GINTAB,N#Cc1cc2ccc3oc4ccc5cc(C#N)c6ccccc6c5c4c3c2c2ccccc12,1.368,336.543,507.5398276,0.663086879
WALTEL,N#CCC(=O)Nc1cnc2ccccc2c1,1.3551,171.514,258.6601856,0.663086202
HAMKIP,COC(=O)C1=C(O)C(O)=C(C(=O)OC)C1=CNc1ccccc1,1.4309,244.009,367.9918581,0.663082605
WAVRIX,Cc1ccc2c(c1)OC(=O)/C2=C1/N=CC=CN1,1.4041,177.29,267.3733083,0.663080399
YAGQOM,O=C1NC(CO)C(O)C(O)C1O,1.5179,128.445,193.7097421,0.663079712
LUGNUZ,O=C(Nc1cccc(O)c1)c1cccc(C(=O)Nc2cccc(O)c2)n1,1.4173,271.222,409.0353832,0.66307711
NOKSOV,O=c1cc2[nH]c3ccccc3c(=O)n2nc1-c1ccccc1,1.4132,225.237,339.6934342,0.663059622
HMPYQT,O=C1C=C2C(=O)N3CCc4cccc(c43)C23CCCC1C3=O,1.4318,225.399,339.9430675,0.663049262
ACADOS,CC(=O)OC1C(CO)OC(n2cnc3c(N)ncnc32)C1O,1.4983,227.153,342.5906783,0.663044894
SAXBAV,COc1ccc(C(=O)NNC(=O)c2ccc(OC)cc2)cc1,1.3921,237.362,357.9946399,0.663032274
REQVAL,O=c1cccc2n1Cc1cc3ccccc3nc1-2,1.3908,185.309,279.4881414,0.66302992
WARHUV,COC1(C)NC(=O)C2(C(=O)NC(=O)C2C#N)C1C,1.4234,194.223,292.9331602,0.663028385
KIZNAL,O=C1c2ccccc2C(=O)N1CCCn1cc(-c2ccccc2)nn1,1.3842,264.179,398.4472166,0.663021321
CUVQUF,CCc1cccc2[nH]cc(CC(=O)O)c12,1.3583,164.622,248.2948836,0.663010037
TAWPEN,O=C(NNC(=O)c1nc[nH]n1)c1ccccc1,1.4367,177.079,267.0872014,0.663000695
KETZOZ,COc1cc2c3c(c1OC)C(=O)c1ccccc1C3=NCC2,1.4015,230.249,347.2925324,0.662982871
MAVNIJ,O=C(O)c1ccc(-c2ccc(NC(=O)c3ccc[nH]3)cc2)cc1,1.3977,241.108,363.6763215,0.66297415
DIFJIL,CC(=O)NC1/C(=N/O)OC(C(O)CO)C1O,1.489,173.077,261.0623641,0.662971856
BALHUS01,COc1ccc(O)c(/C=N/c2cccc(O)c2)c1,1.3748,194.661,293.6241603,0.66295975
CVCYCA,COC(=O)/C=C/c1ccc(/C=C(\C#N)C(=O)OC)cc1,1.3444,221.986,334.8429416,0.66295559
OKIVOW,CN1C=C(C=O)C2(CC(=O)c3ccccc3C2=O)c2ccccc21,1.388,251.513,379.3839223,0.66295113
REXDUW,COC(=O)C(O)CC(C(=O)OC)N1C(=O)c2ccccc2C1=O,1.4601,242.091,365.1760187,0.662943314
VIXQOK02,[NH3+]C(Cc1c[nH]c2ccccc12)C(=O)[O-],1.3759,163.296,246.3199729,0.662942587
WARXIW,NC(=O)CNC(=O)NCCC(=O)O,1.4622,142.352,214.7297713,0.662935554
DECYUF,Nc1ccn(CCO)c(=O)n1,1.4296,119.412,180.1261701,0.662935319
FIZDID,NC(=O)Cc1coc2cc(O)ccc12,1.4193,148.192,223.5407022,0.662930726
VIKFEA,Cc1cn(C2CC(O)C(CO)C2)c(=O)[nH]c1=O,1.4327,184.496,278.3055338,0.662926092
QANTUV,Cc1ccc(/N=N/c2ccc(O)c(C=O)c2)cc1,1.357,194.768,293.8049011,0.662916103
SEJMAV,OC12CC(N=C3C1=CC1COC3O1)C1COC2O1,1.5437,179.048,270.0928977,0.662912656
HOJTOQ,Cc1noc2c1c(=O)n(C)c1ccccc21,1.4076,167.419,252.5516213,0.662910018
VOMRUK,CN(C)/C=C(/C(=O)c1ccccc1)c1ccccc1,1.2799,215.995,325.828707,0.662909668
NONFOM01,Oc1ccccc1-c1cn2ccccc2n1,1.3735,168.368,253.991778,0.662887599
DIRDOX10,CC(=O)OCC1OC2CC1Cc1cc(=O)[nH]c(=O)n12,1.4816,197.69,298.2380568,0.662859737
ROXLIC,CCOC(=O)c1cc2cccc(C#N)c2nc1N,1.3802,192.271,290.0637308,0.662857778
POWSAY,Cc1ccc(-c2nnc(-c3cccc(-c4nnc(-c5cccnc5)o4)c3)o2)cc1,1.3986,299.952,452.518338,0.662850485
YAHJUO,NC(=O)CC1NC(=O)C(CC(N)=O)NC1=O,1.4876,168.768,254.6110315,0.662846378
MOXTIF,Cc1ccc2c3ccccc3c(C)c(=O)n2c1,1.3389,183.412,276.7042984,0.662844781
ATUVUG,CC(=O)c1c(C(=O)O)nn(-c2ccccc2)c1C,1.3915,193.073,291.2879669,0.662825183
JEJRIA,COC(=O)c1nc(-n2cc(-c3ccccc3)nn2)n[nH]1,1.4405,206.372,311.3541694,0.662820737
ALUCAL04,CC([NH3+])C(=O)[O-],1.371,71.49,107.857458,0.662819256
HIWMUW,Nc1c(O)ccc(C(=O)c2ccccc2O)c1O,1.4307,188.53,284.4490545,0.662790039
ELUHEB,Cc1c2oc3cccc(C)c3nc-2cc(O)c1=O,1.4095,188.241,284.0207926,0.662771899
BUVYUO,Cc1cn2c(=O)c3ccccc3nc2c2c1c1ccccc1n2C,1.3939,247.231,373.0321995,0.662760481
BIPPOI,C/C(=N\NC(=O)c1ccc(N)cc1)c1ccccc1O,1.3683,216.46,326.6058161,0.662756109
PEXPEN,Cc1cc(=O)oc2c1ccc1nc(-c3ccccc3)oc12,1.4078,216.603,326.8283188,0.662742448
HOMLIE,COC(=O)C1COC(=O)c2cccc(c2)C(=O)OCC(C(=O)OC)NC(=O)c2cccc(c2)C(=O)N1,1.4509,377.843,570.122293,0.662740266
FEYHAU,Cc1nn2c(-c3ccccc3)cc3ccccc3c2c1C=O,1.3548,232.414,350.6903485,0.66273281
ZESJAK,CC1=NN2C(=O)COc3ccccc3C2C1,1.3981,170.093,256.6617915,0.662712588
BISREA,O=C1C=CC2C=CC1n1c(=O)n(-c3ccccc3)c(=O)n12,1.4399,214.826,324.1624533,0.662710927
RUSVEH,Oc1ccc2nc3ccccc3nc2c1,1.3894,155.295,234.3337546,0.662708624
IVIYUH,O=c1c2ccccc2c2ccccc2c(=O)n1-c1ccccc1-n1c(=O)c2ccccc2c2ccccc2c1=O,1.3989,409.188,617.4482201,0.662708202
HEWMAY,O=C1/C(=N/c2cccc3ccccc23)c2cccc3cccc1c23,1.3546,249.487,376.4726009,0.662696301
CUYSUM,O=C1c2nc3ccccc3c(-c3ccccc3)c2C(=O)N1c1ccccc1,1.3785,279.482,421.7520778,0.662668934
PTZCOC,O=C1C2CN=NC2C(=O)N1c1ccccc1,1.4187,166.82,251.7405884,0.662666283
JOJHAR,N#[N+][N-]C1CC([N-][N+]#N)C(O)C1O,1.4664,138.13,208.4479626,0.662659391
BUFFUE,O=C1c2ccccc2C(=O)N1Cc1ccccn1,1.3902,188.447,284.3807095,0.662657465
GOBXEC,COC(=O)c1cc(-c2ccccc2)no1,1.3903,160.716,242.5365163,0.662646609
GUGMIG,C/C(N)=C/C(=O)c1cnccn1,1.3542,132.509,199.9716568,0.662638907
OTIHAB,O=C1c2ccccc2C2C1C1CC2n2c(=O)n(-c3ccccc3)c(=O)n21,1.4371,264.239,398.7835874,0.662612526
WOQRID,N#CC1=C2N=C(N)C(C#N)(CCOCCOCCO2)C1c1ccccc1,1.3834,280.092,422.7166181,0.662599926
FENCOQ,C/C(=N\O)c1[n-]o[n+](=O)c1C,1.456,118.681,179.1175407,0.662587257
AMEBAC,Cc1cccc(C(=O)O)c1N,1.3684,121.464,183.3204936,0.662577313
LESKOL,O=C(NCCNC(=O)c1ccccc1O)c1ccccc1O,1.4075,234.603,354.0776825,0.662574942
VOCBIZ,CCCCn1c2nc(=O)[nH]c(=O)c-2nc2cc(C)c(C)cc21,1.3935,235.406,355.2897206,0.662574756
POGCIA,N#Cc1ccc(C2N(c3cccc4cccnc34)C(=O)c3ccccc3C23CC3)cc1,1.3484,327.33,494.0331948,0.662566814
PEJKEX,COc1cccc2c(=O)on(C)c12,1.4143,139.298,210.2411924,0.662562832
LENVIL,O=C(N/N=C/c1ccc2ccccc2c1)c1cc2ccccc2cc1O,1.3463,277.961,419.5240495,0.662562731
HIMPEO,O=C(/C=N/O)c1ccccc1,1.3514,121.345,183.149752,0.66254526
IDOYUW,COc1ccccc1C=C1C(=C(C#N)C#N)c2ccccc2C1=C(C#N)C#N,1.3173,300.757,453.946637,0.662538227
MODQIH,OCC1COC(c2cccc(C3=NC(CO)CO3)c2)=N1,1.4221,213.613,322.4175081,0.662535361
JOWSUL,COC(=O)CCCN1C(=O)C(=O)c2ccccc21,1.4042,193.588,292.2008623,0.662516868
BEWLIY10,COC(=O)c1cc2c(-c3ccccc3)nn(C)c(=O)n2n1,1.4239,219.502,331.3163953,0.662514753
IFIYEB,NC(=O)NNC1OC(CO)C(O)C(O)C1O,1.5317,170.297,257.0488732,0.662508253
NURGAJ,N#Cc1cccc(Oc2cccc(Oc3cccc(C#N)c3C#N)c2)c1C#N,1.3503,295.005,445.28673,0.662505707
IHUKEB,COc1cc2c3c(c1O)C(=O)c1ccccc1C3=NCC2,1.422,215.922,325.918492,0.662503065
OPIKUV,COc1ccc2c(c1)c1ccc3ccccc3c1c1cnc(N)nc21,1.3862,258.03,389.4797165,0.662499198
LARMIB,N#Cc1ccc(-c2nnc(-c3ccc(C#N)cc3)o2)cc1,1.3582,220.375,332.6455072,0.662492038
VARKII01,COc1ccccc1C1=C2C(=O)N(C)C(c3ccccc3OC)=C2C(=O)N1C,1.3812,299.595,452.2313317,0.662481741
FEFLIM,Nc1nc2c(ccn2C2CC(O)C(CO)O2)c(=O)[nH]1,1.4898,196.498,296.6090476,0.662481477
AJULOG,COc1c(O)ccc2c1C(=O)N1CCc3cc4c(cc3C1C2)OCO4,1.457,256.042,386.4977235,0.662467033
KUTBIN,O=C1c2c3c(c4ccccc4c2C(=O)N1c1ccccc1)OCCC3,1.399,258.786,390.6448063,0.662458571
QUTVUX,O=C(c1ccccc1)c1c2ccccc2cc2c1[nH]c1ccccc12,1.3551,260.681,393.5090942,0.662452288
LABZIX,COC1=C/C(=N/c2c3ccccc3nc3ccccc23)C=CC1=O,1.3693,252.337,380.9272177,0.662428381
MOZBIP,C/C(Nc1cccc(O)c1)=C1\C(=O)Oc2ccccc2C1=O,1.4159,229.254,346.0818213,0.662427166
AFANAW,O=C(O)c1ccccc1N1C(=O)c2ccccc2C1=O,1.4282,205.687,310.508664,0.66241952
CUDBAF,COc1cc(/C=N/NC(=O)c2ccc(O)cc2O)cc(OC)c1OC,1.4266,266.878,402.8887125,0.662411211
YALTEK,O=C1C(O)=CC=C/C1=C/Nc1ccccc1CO,1.3792,193.867,292.6874243,0.662368739
NURKUI,N#CC1C2C3CCC(C4OC34)C12,1.3678,129.537,195.5667471,0.662367207