name,smiles,Density,Vint,Veff,pc
QIFDOZ,O=Cc1nc2ccccc2n1-n1c(C=O)nc2ccccc21,1.4926,225.728,322.7304513,0.699431984
QEQLUT,CC(=O)C1C(C#N)(C#N)C1(C#N)C#N,1.379,155.003,221.6202689,0.699408049
SAZNIQ,O=C(O)c1ccnc2ccccc12,1.4645,137.233,196.2191702,0.699386303
PYZTAZ,COc1n[nH]c2nncnc12,1.5578,112.609,161.0172358,0.699359913
QOMNIR,O=C([O-])c1ccccc1/[NH+]=C/c1ccc(O)cc1,1.4585,191.926,274.4787844,0.699238014
AMSALA01,Nc1ccc(C(=O)O)c(O)c1,1.5233,116.644,166.8368214,0.699150218
WEHYAK,O=C1COC(=O)CN1,1.5742,84.831,121.3401992,0.699117033
AKIQIW,COc1ccccc1-c1nnc(-c2nnc(-c3ccccc3OC)o2)o1,1.5072,269.632,385.7341819,0.699009869
BUWYEZ,N#Cc1ccc(Oc2ccc(C#N)c(C#N)c2)cc1C#N,1.3976,224.293,320.8728817,0.6990089
CYANAC,N#CCC(N)=O,1.3966,69.842,99.91704252,0.698999873
NAJLET,Cc1cc(C(=O)O)cc(=O)[nH]1,1.5035,118.142,169.0339408,0.698924721
NEQVOV,O=C([O-])Cn1c[n+](CC(=O)O)c2ccccc21,1.518,178.936,256.0518925,0.698827094
CYACHZ,N#CCC(=O)NN,1.4328,80.213,114.7900897,0.698779836
OHPRDC,O=C([O-])C1CC[NH2+]CC1O,1.4992,112.288,160.6921739,0.69877703
HISCAO,O=C([O-])C[NH+](CC(=O)O)C1(C(=O)O)CCCCC1,1.523,197.395,282.5152582,0.698705625
CYSESE,O=C1NC(CO)C(=O)NC1CO,1.5667,128.896,184.4965677,0.698636303
IHULUS,N#CC(C#N)=Cc1ccc(O)cc1,1.3739,143.59,205.5329574,0.698622751
VITWOK,O=C(O)CC(NC(=O)c1ccccc1)C(=O)O,1.502,183.103,262.0958838,0.698610742
MFURCH10,Cc1[n-]o[n+](=O)c1C(=O)NN,1.589,115.386,165.1654184,0.698608711
YUJTEF,O=c1c2ccccc2nc2n1CCn1c-2nc2ccccc2c1=O,1.5092,242.962,347.8061623,0.698555766
XISWIH,O=C(Nc1cccnc1)c1ccc(/N=N/c2ccc(C(=O)Nc3cccnc3)cc2)cc1,1.4542,336.724,482.0663148,0.698501409
VEXMEQ,Cn1cnc2c(=O)[nH]cnc21,1.5343,113.439,162.4062696,0.698489044
AMILEP,O=C(O)c1ccc(Oc2cncc(C(=O)O)c2)cc1,1.5229,197.299,282.4710939,0.698475009
ZIJDED,N#Cc1nc(/N=N/c2ccc(N(CCC(=O)O)CCC(=O)O)cc2)[nH]c1C#N,1.4948,295.721,423.3914017,0.698457736
GIHCOQ01,O=C(O)c1ccc(=O)[nH]c1,1.5338,105.129,150.5203687,0.698437035
RISBAX01,CC(=O)c1c(O)c2ccccc2[nH]c1=O,1.5032,156.662,224.320462,0.698384795
RFPNCX10,NC(=O)c1cn(C2OC(CO)C(O)C2O)ccc1=O,1.5717,199.258,285.3620031,0.698263952
TAFKIU,O=NN1CCN(N=O)c2nonc21,1.659,128.626,184.2119776,0.698249928
KECLEJ,O=c1c2cc(O)cc3cc(O)cc(c32)c2nc3ccccc3n12,1.5085,232.184,332.5263623,0.698242384
AFESUA,O=C1NC(=O)C2C3C=CC(C(O)C3O)C12,1.5737,154.039,220.6136253,0.698229766
QIBCIO,O=c1[nH]ncc2ccc3ccccc3c12,1.4635,155.334,222.4689569,0.698227753
YULNAX,CNC1=C(NC(C)=O)C(=O)c2ccccc2C1=O,1.4675,192.852,276.2025254,0.69822678
SEPDEW,Oc1ccc(O)c(-n2cccn2)c1,1.491,136.907,196.0850931,0.698201979
SODRAG,O=C(O)c1cn(-c2ccccc2C(=O)O)nn1,1.5507,174.236,249.5597437,0.698173501
PERNUV01,O=C([O-])C[n+]1cc[nH]c1,1.4974,97.586,139.7802092,0.698138889
GUHFIY,Cc1c2c(nc3ccccc13)C(=O)c1cccnc1C2=O,1.4773,215.08,308.08073,0.698128702
VAXRUH,O=C=Nc1cccc2c(N=C=O)cccc12,1.4542,167.444,239.8550992,0.698104816
GEXMAA01,O=c1c(=O)c2ccccc2[nH]c2ccccc12,1.4636,176.663,253.0875672,0.698031128
DAHWEO,CCn1cc(C(=O)O)c(=O)c2cc3c(cc21)OCO3,1.551,195.105,279.5115522,0.698021239
BIUREA,NC(=O)NNC(N)=O,1.5916,85.967,123.1668099,0.697972125
PIPVAL,CCOC(=O)C1(O)NC(=O)NC1=O,1.6035,135.92,194.7394695,0.69795815
XAFSIG,O=C(NN=C1c2cccnc2-c2ncccc21)c1ccccc1O,1.4815,247.282,354.3091868,0.697927147
REZGUA,COC(=O)c1c2c(c3ccccn13)C(=O)N(C)C2=O,1.5256,196.018,280.9000869,0.697821073
SUWXUD,O=C1NC(=O)C2C1ON1c3ccccc3C(=O)C21c1ccccc1,1.5237,243.417,348.8379347,0.697793949
FOJPIF,O=C(/C=C(\O)C1=CC=C/C(=C(\[O-])O)[N+]1=O)c1ccccc1,1.5041,219.605,314.7242985,0.697769448
COJMUJ,Nc1nnc(-c2cccnc2N)o1,1.537,133.479,191.3039937,0.697732428
YIRLER,NC(=O)c1ncccn1,1.4777,96.477,138.2727485,0.697729676
CUTVAO,O=c1[nH]c(=O)c2ncn(C3OC(CO)C(O)C3O)c2[nH]1,1.6366,201.113,288.2415258,0.697723895
JODMUL,Nc1ncnc2c1cnn2C1OC2(CO)COC1C2O,1.6026,201.746,289.1975973,0.697606072
TADNUJ,CC(=O)c1cc2ccccc2n2nnnc12,1.4808,165.885,237.8195083,0.697524779
ILIGAM,O=C(O)CCn1ccnc1-c1nccn1CCC(=O)O,1.5099,213.311,305.8582417,0.697417859
IKAWAT,O=C(O)c1ccc(-n2ccnc2)cc1,1.4683,148.328,212.688193,0.697396493
PEDDIM02,O=C(Nc1ccccc1)c1ccncc1,1.4092,162.779,233.4164825,0.697375774
PINNOP04,O=C1c2cccnc2-c2ncccc21,1.4759,142.842,204.8302256,0.697367781
BEMTIY,N#CCC1(O)C(=O)Nc2cccc(O)c21,1.5025,157.263,225.5249445,0.697319759
GLYGLY14,[NH3+]CC(=O)NCC(=O)[O-],1.5151,100.923,144.7350201,0.697294959
JAPCEI,O=c1ncn(C2OC(CO)C(O)C2O)c2nc[nH]c12,1.6091,192.905,276.6608202,0.697261722
QERTEN,O=c1ccccn1-c1ccc(-n2ccccc2=O)cc1,1.4421,212.026,304.1034955,0.697216583
KUVYAC,O=Cc1ccc2oc3ccccc3n2c1=O,1.5099,163.361,234.3059343,0.697212388
ICICIJ,O=C1c2ccccc2C(=O)c2c(NCc3ccccn3)cccc21,1.4472,251.267,360.4226364,0.697145447
THYGLY10,CC1(O)C(=O)NC(=O)NC1O,1.6066,115.324,165.4278503,0.697125664
UQOGAL,NC(=O)c1nc2ccccc2c(=O)[nH]1,1.5157,144.393,207.1272576,0.697122154
DAFLUO01,Nc1ccc2c(c1)C(=O)c1cc(N)ccc1-2,1.4456,168.221,241.323815,0.697075835
DIGDIG,O=C([O-])CC[NH+](CCC(=O)O)CCC(=O)O,1.5063,179.121,256.9668391,0.697058814
BZTRZO,O=c1[nH]nnc2ccccc12,1.499,113.547,162.8952905,0.697055143
WOKPAO,COc1cn2c(=O)n3c(cc2c1OC)C(C)=C(C)C3=O,1.4991,211.638,303.6240075,0.697039742
BAYHOB,O=C1NC(=O)c2c1ccc1ccccc21,1.4841,153.667,220.4820261,0.696959307
MAVGEW01,O=C1Nc2ccccc2/C1=N/NC(=O)c1ccccc1,1.4655,209.318,300.375545,0.696854333
MORXUP,NC(=O)NNc1nnc(-n2cccn2)nn1,1.5914,160.748,230.6906227,0.696812025
MODYAG,Nc1ccc2c(c1)C(=O)NC2=O,1.5171,123.593,177.3703021,0.696807744
UDEGUH,COC(=O)C12C(=O)C3(C(=O)OC)C4CC1C1C=CC4ON3N2O1,1.6154,230.707,331.092123,0.696806067
OFOJIC,O=c1c2ccccc2n2c3ccccc3c(=O)c3cccc1c32,1.4699,233.859,335.6210299,0.696794835
WENJAA,Nc1ccc2c(c1)OC1(O)c3ccccc3C(=O)C21O,1.5285,203.674,292.3229717,0.696743054
CACPUS,O=C(NO)C(O)C(O)CO,1.5791,110.67,158.8439168,0.696721676
MOGYOX,O=CN(C=O)CN(CN(C=O)C=O)CN(C=O)C=O,1.5238,206.574,296.5014312,0.6967049
QIJYEN,O=C([O-])C[NH2+]C(CO)(CO)CO,1.522,136.123,195.3871261,0.696683567
CANGEF,O=C(N/N=C/c1ccccc1C(=O)O)c1ccc[nH]1,1.4826,200.603,287.9449051,0.696671469
DOVDIC,O=C(c1cc(C(=O)O)c(=O)[nH]n1)c1ccco1,1.551,174.556,250.5650231,0.696649508
TICVUW,COC1=CC(=O)C=C/C1=N\O,1.4803,119.601,171.683125,0.696638065
AZURID10,O=c1cnn(C2OC(CO)C(O)C2O)c(=O)[nH]1,1.6225,174.719,250.8194651,0.696592667
BISMEV04,NC(=O)CN1CCCC1=O,1.4687,111.897,160.637613,0.696580321
SNQUOX,O=C1C=Cc2ccccc2/C1=N/O,1.4533,137.728,197.7313526,0.69654103
PELJUM,O=C1CC(C(=O)O)N1,1.5301,86.953,124.8374234,0.696529916
HOLBEQ,N#CCOc1ccccc1C(=O)O,1.4524,140.986,202.4214611,0.696497295
FEZROR,Cc1cc(=O)n(N)c2nnc(C)n12,1.5135,136.83,196.4859114,0.696385807
AJEVER,CN1C(=O)c2ccccc2/C1=C(/N)C#N,1.4275,161.246,231.5819387,0.696280551
NAPOIM,O=C1NC(=O)c2cccc3cccc1c23,1.4835,153.564,220.5711998,0.696210567
SAGMEU,Cc1nc(C(=O)O)c(C(=O)O)nc1C,1.5459,146.603,210.5944655,0.696138902
ZUVPEN,C[NH+]1CC(O)C(O)CC1C(=O)[O-],1.5191,133.232,191.3930952,0.696117067
MIXCEE,O=C1/C(=C2\Nc3ccccc3C2=O)Nc2ccccc21,1.4757,205.284,294.911203,0.696087493
UQEVIW,Cc1cc(=O)[nH]c2c1C(=O)c1ccccc1C2=O,1.4872,185.779,266.9312255,0.695980771
GILQEA,N#[N+][N-]C(=O)c1cc[nH]c1,1.4828,106.03,152.3506548,0.695960251
HQOXDO02,O=c1[nH]c2ccccc2[nH]c1=O,1.5196,123.222,177.0784978,0.695860884
AZOROX,N/N=C1\C(=O)Nc2ccccc21,1.4828,125.5,180.3712092,0.695787319
QINBEU,O=C1NC(C2COC(=O)N2)CO1,1.6132,123.219,177.1036351,0.695745177
SAKLIZ,O=C(Nc1ccccc1O)C(=O)Nc1ccccc1O,1.4965,210.052,301.9148421,0.695732606
BAXVOL,COc1ccc2nc3cc(N)c(=O)cc-3oc2c1,1.5047,185.861,267.1496095,0.695718778
KUTXAB,Cn1cnc(C=O)c1C=O,1.4564,109.499,157.3977515,0.695683381
COYNAF,NN1C(=O)c2ccccc2C1=O,1.4995,124.83,179.4521409,0.695617223
SEPDIA,Oc1cc(-n2cccn2)c(O)cc1-n1cccn1,1.5044,185.877,267.2152829,0.695607669
ABEPIH,Cc1cn(CC(=O)O)c(=O)[nH]c1=O,1.5507,137.098,197.0921418,0.695603583
FIWYUF,Cn1c(=O)c2ncnnc2n(C)c1=O,1.5511,143.762,206.6890553,0.695547231
TOXPEE,COC(=O)Nn1nnnc1-c1nnnn1NC(=O)OC,1.6339,200.809,288.7151122,0.69552646
PEGVOM,N#C/C=C/c1occ2occc12,1.4348,128.018,184.0595109,0.695525047
NORMUF,O=C(Nc1ccncc1)c1cc[n+]([O-])cc1,1.4639,169.659,243.9677386,0.695415717
VOKBED,C/C(=N\NC(=O)c1ccc(O)cc1)c1cnccn1,1.459,202.701,291.4825635,0.69541381
FEVBIS,N#C/C(=C\c1ccc(O)cc1)C(=O)O,1.4469,150.876,216.9632526,0.695398867
YERKAH,OCC1C(O)C(O)C2C(O)C(O)CN12,1.5634,151.469,217.846229,0.695302373
VUTNIJ,O=C(O)c1ccc(NC(=O)c2cnccn2)cc1,1.4954,187.66,269.9162284,0.69525275
CUFGUF,O=C1C(c2ccccc2)=C([O-])[n+]2cccn21,1.4706,166.481,239.4563265,0.695245778
XOPWEF03,O=c1c(NCc2ccccc2)c(NCc2ccccc2)c1=O,1.4015,240.629,346.1265986,0.695205168
PICANO06,O=C(O)c1cccc[n+]1[O-],1.5289,104.977,151.0027743,0.695199148
MFRCAH10,Cc1c(C(=O)NN)[n-]o[n+]1=O,1.5826,115.286,165.8333438,0.695191916
WAZCOS,O/N=C1C(=N\O)\c2cccnc2-c2ncccc2\1,1.5179,182.541,262.6335617,0.695040645
HEFTOD,COc1ccc2nc3c4cccc5cccc(c(=O)n3c2c1)c54,1.4794,234.107,336.8455123,0.694998127
FASDUY,Cc1c2occc2cc2c1oc(=O)c1cnccc12,1.498,193.386,278.3092914,0.694860021
TRYTAN,O=C1c2ccccc2-n2c1nc1ccccc1c2=O,1.4672,195.081,280.7565933,0.694840316
DICLIK,CCN1C(=O)c2ccc3c4ccc5c6c(ccc(c7ccc(c2c37)C1=O)c64)C(=O)N(CC)C5=O,1.5,343.142,493.8919512,0.694771395
WAJZOA,Cc1nnc(-c2cc(=O)cc(-c3nnc(C)o3)o2)o1,1.5521,193.283,278.2337437,0.694678501
SODREK,OCc1cn(-c2ccccc2O)nn1,1.4868,148.241,213.404609,0.694647602
MALRIB,O=c1ccc(=O)n2n1C1CC3C4C1C2CC4n1c(=O)ccc(=O)n13,1.5793,238.174,342.8887223,0.694610188
NMBZAX,C[N+](=O)C=C1C=CC(=[N+]([O-])[O-])C=C1,1.4698,141.256,203.4268805,0.694382176
YODLUY,O=C1c2ccccc2C(=O)c2c(O)c(Nc3ccccc3)cc(O)c21,1.494,255.474,368.0045856,0.694214176
IRAXEF,O=C(N/N=C/c1ccc(O)cc1O)c1ccc(O)cc1,1.4981,209.358,301.5923911,0.694175338
WUKHUF,N#Cc1cccc(C(N)=O)c1,1.3913,121.006,174.3170632,0.69417186
CEWJAS,O=c1ccn(C2OC3(CO)COC2C3O)c(=O)[nH]1,1.6118,183.126,263.822479,0.694125841
JIRCUJ,O=c1oc2ccccc2c2c1C(O)N1C=CC=CC1=N2,1.5175,202.097,291.1594184,0.694111154
BEURID10,O=c1ccn(C2OC(CO)C(O)C2O)c(=O)[nH]1,1.5979,176.048,253.646581,0.694068098
HXQUIN11,Oc1cccc2cccnc12,1.4231,117.466,169.2605014,0.693995344
HTZPDZ10,Oc1ccc2nncn2n1,1.5501,101.138,145.7361144,0.693980352
RANXIQ,O=C1C2CC2C(=O)N1c1cccc2cccnc12,1.4679,186.908,269.3276533,0.693979982
EWOZEV,O=C(O)Cn1ccc(=O)cc1,1.4825,118.967,171.4283508,0.69397506
VIMKOT,O=C1C=CC=C/C1=C/Nc1ccc(C(=O)O)c(O)c1,1.4811,200.009,288.2239298,0.693936136
FORMYB01,O=c1[nH]cnc2c(C3OC(CO)C(O)C3O)n[nH]c12,1.5952,193.654,279.0715433,0.693922418
WAZYUU,N#C/C(=C\C=C\c1ccccc1)C(=O)c1ccco1,1.3723,209.145,301.4068001,0.69389609
HXBNZM,NC(=O)c1cccc(O)c1,1.4496,108.917,156.9959815,0.69375661
SIMFUP,O=C1CNC(=O)c2c(ncn2C2OC(CO)C(O)C2O)N1,1.6005,214.558,309.284892,0.693722861
VAYKOY,CC(=N)NC(=O)C(=O)c1cnc2ccccn2c1=O,1.51,196.883,283.8144549,0.693703216
KUVXUU,N#CC(C#N)=C1C=CC2=C(C=C1)C(=O)C=CC2=O,1.4124,190.88,275.1711167,0.693677455
BABXAD,O=C(Nc1ncnc2nc[nH]c12)c1ccccc1,1.4929,184.458,265.9370534,0.693615266
BOXAZD,O=c1[nH]c(=O)c2ccccc2o1,1.5394,121.973,175.862376,0.69357075
UGUHIN,O=c1oc2ccccc2cc1-c1nc2ccccc2o1,1.4893,203.421,293.3153284,0.693523251
MTHYMD10,CN1C(=O)NC(=O)C2(C)C1C1(C)C(=O)NC(=O)N(C)C21,1.5369,209.874,302.6628587,0.693425024
RISSET,COc1cccc2c(-c3ncnc4c3cnc3oc5c(OC)cccc5c34)c(N)oc12,1.5132,313.594,452.261266,0.69339124
ETUCON,O=C1c2ccccc2-c2nccc3c2c1cc1c(-c2ccccn2)[nH]c(-c2ccccn2)c13,1.4629,333.82,481.4507362,0.693362737
MFCBXA,Cc1c(C(N)=O)[n-]o[n+]1=O,1.5683,105.01,151.4510942,0.693359137
MUVDUD,O=C(C(=O)n1ncc2ccccc21)n1ncc2ccccc21,1.4785,225.882,325.8082324,0.693297399
ONUNAO,O=C1C(=O)c2ccccc2C2=C1CC(Cn1nncc1-c1ccccc1)O2,1.4692,279.831,403.634014,0.693279036
ISISOV,Cc1[nH+]c2ccccc2c(C(=O)[O-])c1O,1.4878,157.126,226.6423704,0.693277253
TEBLAO,Oc1ccccc1-c1nnc(-c2ccccc2O)nn1,1.4882,205.83,296.9043621,0.69325354
UKIGAW,Cc1cc2c(=O)c3ccccc3n3c4ccccc4c(=O)c(c1)c23,1.4552,246.095,355.0053191,0.693214965
MXPACX,N/C(=N\O)C(O)c1ccc2c(c1)OCO2,1.5389,157.126,226.6764394,0.693173055
SIVQUJ,C[N+](C)=c1c(O)c([O-])c1=O,1.4688,110.517,159.4603282,0.693068936
XABQAV,O=C1CC2(C(=O)N1)C1C(=O)NC(=O)C1C1c3ccccc3C=CN12,1.5387,241.656,348.6867227,0.693046177
FUNXER,Cc1nc2n[nH]c(=O)nc2n1C,1.5291,124.225,179.2603743,0.692986392
OSOTEW,O=c1ccn(C2OC(CO)C(O)C2O)cn1,1.5602,168.218,242.7513885,0.69296411
NAHRIX,O=c1c2ccccc2oc2nc(-c3ccccc3)nnc12,1.4855,213.073,307.4926778,0.692936826
HAXRAA,O=C(O)C(O)C(O)C(=O)Nc1ccccc1,1.509,171.621,247.6744981,0.692929637
QONPOY,C/C(=N\O)c1c(O)c2ccccc2[nH]c1=O,1.4934,168.021,242.484008,0.692915798
UMUNAT,Cn1c(=O)n2c3ccccc3c(-c3ccccc3)c2c2ccccc21,1.4434,258.382,372.9001473,0.692898627
WECCIS,O=c1c2c(c1=O)NCc1ccccc1CN2,1.4711,167.434,241.650236,0.692877453
IQENEY,O=CNc1cc2ccccc2oc1=O,1.4974,145.242,209.64614,0.692795966
ZUMPUS01,Cc1ccc(C#N)c(=O)[nH]1,1.4028,109.932,158.6827275,0.692778614
OLORAI,O=C(OCCOC(=O)c1ccncc1)c1ccncc1,1.4618,214.119,309.0816536,0.692758685
WOCQOU01,O=C1C=Cc2ccccc2/C1=C/Nc1cccc(C(=O)O)c1,1.4533,230.415,332.6108137,0.692746569
ADOBOM,N#CC1=C(N)Oc2ccccc2C1C(C#N)C#N,1.4148,191.945,277.0833531,0.692733785
CUXHUA,O=C(CN1C(=O)c2ccccc2C1=O)c1cnc2ncccn12,1.5074,233.575,337.1823185,0.692726122
VAXJIO,O=c1c2cc3c(=O)n(Cc4ccncc4)c(=O)c3cc2c(=O)n1Cc1ccncc1,1.4928,306.701,442.8505888,0.692560895
DUNVEN01,O=C1CC(=O)NN1,1.5654,73.48,106.110449,0.692485997
ZECJOI,O=C(Nc1cccnc1)C(O)C(O)C(=O)Nc1cccnc1,1.4961,232.188,335.3183337,0.692440516
GIZYIY,NC(=O)C(=O)c1ccco1,1.5,106.572,153.9120944,0.692421219
BETJIV,COc1cc(C(=O)O)nn1-c1ccccn1,1.5174,165.999,239.7379254,0.692418606
BOXFOJ,O=C1NC(O)c2ccccc2O1,1.5279,124.197,179.376746,0.692380717
DEBHAU,O=C(Nc1ccc(NC(=O)c2cccnc2)cc1)c1cccnc1,1.4453,253.061,365.4993764,0.692370538
QQQFGS10,NC(N)=[NH+]C[C@@H](O)CC(=O)[O-],1.4977,123.644,178.6001979,0.692294865
MOJRAF,O=C(O)CNC(=O)CN1C(=O)c2ccccc2C1=O,1.5228,197.823,285.7730024,0.692238239
QAPJEY,O=c1oc2ccccc2c2nc3ccccc3cc12,1.4679,193.478,279.4968072,0.692236888
VOMFOS,Nc1ncnc2c1ncn2C1OC(CO)C2OC21,1.5692,182.464,263.5945232,0.692214686
SOJJAC,N#CC(C#N)=C1OC(=O)c2ccccc21,1.434,157.123,227.0034147,0.692161394
HABFUL,Cn1c(=O)n2n(c1=O)C1C=CC2C23CC12C1C=CC3n2c(=O)n(C)c(=O)n21,1.5855,266.821,385.5601117,0.692034762
EWOFAZ,COc1ccc(-c2c3c(c4oc5ccccc5n24)C(=O)OC3)cc1,1.4936,245.496,354.7614158,0.692003101
SATCUL,O=C1NCCNC1=O,1.5348,85.385,123.3904647,0.691990262
SAJQUP,O=C([O-])C[n+]1ccccc1,1.4281,110.275,159.3595511,0.691988646
AWESUS,N#C/C(NC(=O)c1ccccn1)=C(/C#N)NC(=O)c1ccccn1,1.452,251.7,363.7840779,0.691893943
BIHKEI01,Cc1[nH+]cc2c(c1[O-])C(O)OC2,1.5068,127.373,184.1099805,0.691831044
JEMSUP,NC(/C=N/O)=N\O,1.5148,78.144,112.9556349,0.691811436
RUPXUV,O=CNc1cncn1C1OC(CO)C(O)C1O,1.5614,178.849,258.5294065,0.691793643
NESFIA01,Cc1cc(O)n2ncnc2n1,1.5193,113.452,164.0097015,0.691739568
ZSPUNT,O=C1CCC2(CCC(=O)NC2=O)C(=O)N1,1.5474,155.921,225.4312865,0.691656435
KIKVAC01,Nn1c(CO)nnc1CO,1.5294,108.186,156.4233576,0.691623052
JENPEX,CN1C(=O)C(=[N+]=[N-])C(=O)N(C)C1=O,1.5477,135.08,195.3235446,0.691570493
XNFPXA10,O=C1c2ccccc2C(=O)c2c1oc1c(C(=O)Nc3ccccn3)cc3ccccc3c21,1.4803,324.355,469.0192189,0.691560147
FOBQIX,N#C/C=C\c1coc2cccc(O)c2c1=O,1.4587,167.724,242.5300131,0.69155977
GEPNAR,O=C(NNC(=O)c1ccccc1O)c1ccccn1,1.4735,200.331,289.7231872,0.691456565
CEWVOP03,Cc1cc(=O)[nH]c(=O)[nH]1,1.5063,96.075,138.9543154,0.691414295
FIFGOQ01,NC(=O)NCCCC([NH3+])C(=O)[O-],1.4798,135.852,196.4886504,0.691398713
KERWIO,NNC(=O)c1cccc(C(=O)NN)n1,1.5069,148.625,214.9728463,0.691366387
TASHAW01,NC(=O)c1cc2ccccc2oc1=O,1.495,145.174,209.9826956,0.691361731
MAFXEX,Cn1nccc(C(N)=O)c1=O,1.497,117.373,169.7803501,0.691322641
FEHVIY,CN1NC1(C(N)=O)C(N)=O,1.5074,109.709,158.7063043,0.691270586
FUVVIC,C/C(N)=C1\C=NC(=O)N(C2OC(CO)C(O)C2O)C1=O,1.5641,209.19,302.6856078,0.691113137
QINVIU,O=Cc1cccc(N/N=C2\C(=O)C=Cc3ccccc32)c1,1.4212,222.936,322.596996,0.691066571
APHSYD,Nc1ccccc1-[n+]1cc(=O)o[n-]1,1.5056,134.947,195.2813391,0.691038891
WIGGAV,Oc1ccccc1-c1cnc(-c2ccccc2O)cn1,1.4421,210.147,304.1034955,0.691037766
TOZSOT02,O=c1oc2ccccc2cc1-c1nnc(-c2ccccc2)o1,1.4793,225.002,325.6194264,0.690996856
TUWJUS01,O=c1cc2oc3ccccc3nc-2c2ccccc12,1.4615,193.973,280.7207413,0.690982074
DEDDAR,Cn1c(=O)n(-c2ccccc2)c2nc3c(nc21)n(-c1ccccc1)c(=O)n3C,1.4852,287.482,416.0819058,0.690926464
YIBZAK,Cc1noc(N)c1C(=O)[N-][N+]#N,1.5292,125.326,181.3979893,0.690889687
HIFTEV,O=C(O)c1cc(-c2ccccc2)nc2ccccc12,1.4216,201.012,290.9542429,0.69087152
KEYYIY,Oc1cccc(O)c1-n1nc2ccccc2n1,1.4926,174.53,252.6273434,0.690859499
YILLEM,N/C(=N\O)c1nc2ccccc2c(=O)[nH]1,1.5116,154.867,224.1795999,0.690816649
ECMALB,O=C(O)c1cc(=O)[nH]c(=O)n1-c1ccccc1,1.528,174.206,252.1855917,0.690784905
OJECEN,O=C([O-])C(CO)NC(=O)C1CC(O)C[NH2+]1,1.5252,164.027,237.4512883,0.690781681
LAWGAU,NNC(=O)Cn1ccccc1=O,1.4667,130.661,189.1563188,0.690756729
FOBNEQ,O=C(c1ccccc1)c1ccc[n+](-c2c([O-])c(=O)c2=O)c1,1.4578,219.562,317.8732843,0.690721778
TULPOF,Nc1ccc2c3c(cccc13)C(=O)C=C2,1.422,157.343,227.7993024,0.690708875
XUQBOB,O=C1C=C(Nc2ccccc2O)C(=O)c2ccccc21,1.4565,208.723,302.2188171,0.690635355
CEWLEW,Cc1ccc2c(c1)nc1c(=O)[nH]c(=O)nc-1n2C,1.5013,184.915,267.7670497,0.690581609
HIGCUW,O=C(N/N=C/c1ccccn1)c1cccc(O)c1,1.4391,192.087,278.1918986,0.690483803
ELUKUU,COc1ccc2oc3c(OC)c(=O)c(O)cc-3nc2c1,1.5171,206.374,298.8923719,0.690462586
XAKZAK,Cc1c([O-])[n+]2ccccc2[nH]c1=O,1.4813,136.266,197.3691175,0.690411964
UMAVEL,COC(=O)C1=C(N)C(=O)c2cc(OC)ccc2C1=O,1.5034,199.088,288.361326,0.690411585
HIKGIT,O=C(Nc1ccccc1)c1cc(=O)c2ccccc2o1,1.4491,209.715,303.7621331,0.690392176
YUNGEV01,O=C1CN(CN2CC(=O)NC2=O)C(=O)N1,1.5972,152.204,220.4719469,0.690355404
LOBPAV,N#Cc1c(CCCO)c(C#N)c2ccc3ccccc3n2c1=N,1.4173,244.354,353.9794634,0.690305583
RAZZEZ,N#Cc1cc2ccccc2oc1=N,1.4218,137.085,198.6086159,0.690226853
DAWGIU,Cc1nc2[nH]nc(-c3ccc(O)cc3)n2n1,1.4973,164.645,238.5380531,0.690225303
AZETAC,O=C([O-])C1CC[NH2+]1,1.4493,79.903,115.7798764,0.690128565
YIQQIB,Cc1ccc2nc(O)c(C(=O)NCc3ccncc3)c(=O)n2c1,1.4845,239.388,346.8932326,0.690091295
PUZPEH,Cn1c(=O)c2c(-c3ccccc3)c[nH]c2n(C)c1=O,1.4559,200.791,290.9680264,0.690079259
ADEKOK,COC(=O)c1cccc(C(=O)OC)n1,1.4683,152.23,220.598838,0.690076165
VATRIT01,O=c1ccc2cccc(O)c2[nH]1,1.4681,125.705,182.1645493,0.690062915
OKEDAM,N#[N+][N-]C1C(O)C(n2ccc(N)nc2=O)OC12COCC2O,1.5998,222.113,321.8879383,0.690032069
DIHIXL10,C1=NOC2C=NOC12,1.5477,82.937,120.199326,0.68999555
NUMRAP,Cc1nc2cc3c(cc2c(=O)n1N)OCO3,1.5429,162.679,235.7757003,0.689973563
OMEWUB,Cc1cc(C)c2c(c1)c(=O)n1c(=O)c3ccccc3c(=O)n21,1.4818,225.837,327.3289284,0.68993902
XADJET,CCN1C(=O)/C(=C2\Nc3ccccc3\C2=N/O)c2ccccc21,1.4513,240.848,349.1189543,0.689873744
VUYJEE,[NH3+]C(CCCC(=O)O)C(=O)[O-],1.4819,124.513,180.4918432,0.68985389
DORJAV,CN1CCc2cccc3c4c(cc1c23)C(=O)C=C(O)C4=O,1.4732,217.02,314.5914306,0.689847144
EVOPIP,O=C(NO)c1ccncc1,1.4666,107.795,156.3030719,0.689653752
EFUQIH,CC(=O)N1C(=O)c2ccccc2C1=O,1.471,147.176,213.4086541,0.68964401
VUNKEU,N#[N+][N-]c1ccc(C(=O)O)cc1,1.4742,126.641,183.6529615,0.689566882
KEQQED,O=C1c2ccccc2C(=O)N1CO,1.4884,136.207,197.5254837,0.68956672
DOQSUX01,O=c1[nH]cccc1O,1.4827,85.747,124.3540746,0.689539127
OQODIJ,O=C(O)/C=C\C(=O)NCCNC(=O)/C=C\C(=O)O,1.5067,194.599,282.2254409,0.689516152
YAGBEP,O=C(/C=C/c1ccco1)ON1C(=O)CCC1=O,1.498,179.661,260.5613011,0.689515286
GADZER01,O=C1CCC(=O)N1C(=O)N1C(=O)CCC1=O,1.5622,164.203,238.1553831,0.689478432
CIZWUD,N#C[N-][N+](=O)c1ccccn1,1.4466,117.161,169.9383042,0.689432559
RATWOY,O=c1n(-c2ccccc2)c(=O)n2n1CC(O)C(O)C2CO,1.537,218.307,316.6713103,0.689380417
XIXDAK,O=C1OCC(c2ccccc2)N1C(=O)C(O)O,1.5142,179.224,259.9841615,0.689365071
ZAYTOI,Cn1cnc2c(ncn2C2OC(CO)C(O)C2O)c1=O,1.5622,206.715,299.8651353,0.689359901
BOXBAR,Nc1cc2n(c(=O)n1)C1OC(CO2)C(O)C1O,1.622,170.13,246.8067984,0.68932461
WARXES,NC(=O)CCNC(=O)NCC(=O)O,1.5203,142.357,206.523628,0.689301275
DHPROX,O=C([O-])C1C=CC[NH2+]1,1.4467,89.437,129.7622001,0.689237697
BEDLIF,Nc1ncnc2c1ncn2C1C=C(CO)C(O)C1O,1.5294,196.895,285.672103,0.689234258
MIMOSA10,COC1=C(C)C(=O)c2cc(=O)n(C)cc2C1=O,1.4763,180.692,262.1649138,0.689230292
IMARAR,O=C1OCC2C1CN1C(=O)OCC21,1.5765,132.875,192.8183151,0.689120221
HEDHIK,CC(=O)/C=C/n1oc(=O)c2cc3ccccc3nc21,1.4662,198.292,287.7555705,0.689098736
BASXUQ,CCCCn1c(=O)c2cc3c(=O)c4ccc(-c5ccc(OC)cc5)cc4c(=O)c3cc2c1=O,1.4417,348.548,505.818936,0.689076615
DEWHOC,CCn1nc(C(=O)O)c(=O)c2cc3c(cc21)OCO3,1.5528,193.11,280.2518855,0.6890587