name,smiles,Density,Vint,Veff,pc
ROGKOQ,CCOC(=O)CN/N=C/c1ccc(/C=N/NCC(=O)OCC)cc1,1.3239,268.292,419.1501723,0.640085625
RDCTMC,CC(=O)OC1CC(/C=C/C(=O)[N-]C2=C(O)CCC2=O)=C[OH+]1,1.3918,223.832,349.6947475,0.640078244
TOBKOM,CCOC(=O)c1c(C)c(C(=O)OC)n2c(=O)n(Cc3ccccc3)c3ccccc3c12,1.3555,327.893,512.2719727,0.640076009
CRYPTP,COc1cc2c(cc1OC)C(=O)Cc1ccc3c(c1CN(C)CC2)OCO3,1.3581,288.919,451.3829235,0.640075167
HPMQPZ,Cc1cc2ccccc2c(-n2nc(-c3ccccc3)cc2O)n1,1.32,242.471,378.8199872,0.640069184
GOJXAG,COCCCn1c(C2c3ccccc3NC2c2ccc3c(c2)OCO3)nc2cc(C(=O)OC)ccc21,1.3562,380.258,594.0974302,0.640059998
COZNEM,COC(=O)C1(C(=O)OC)CCC(=O)N2c3ccccc3CC21,1.3791,233.609,364.9812074,0.640057612
SINBUN,O=C1c2cccc3c(NCc4ccccc4)ccc(c23)C(=O)N1Cc1ccccc1,1.323,315.048,492.2210164,0.640053938
MUJDUQ,O=C(Cn1ccccc1=O)c1ccncc1,1.3362,170.284,266.0467463,0.640052932
WASSOY,CC1=Nn2cnc(C#N)c2NC(=O)C1,1.3761,146.03,228.153069,0.640052753
CITROM10,CCNC(=O)c1cc2c(cn1)[nH]c1ccccc12,1.3313,190.894,298.2492259,0.640048602
TABDOS,CCOC(=O)Cn1nnc(-c2nccnc2-c2nnnn2CC(=O)OCC)n1,1.4201,290.496,453.8680204,0.640045095
KERZUE,COc1ccc(/C=N/OCCCO/N=C/c2ccc(OC)cc2O)c(O)c1,1.3607,292.251,456.6104315,0.64004451
UDAHOX,Cc1ccc(N/C(=N\C(=O)c2ccccc2)[N-][n+]2ccccc2)cc1,1.3004,269.84,421.5963323,0.640043519
DAPFIJ,CCOC1=Cc2c(nnc3c(-c4ccccc4)c(C)nn23)C2=CC=CC=C1C2,1.3275,294.767,460.5443758,0.640040386
KUXJUI01,C/C(=C/C(=O)c1ccccc1)Nc1ccccc1O,1.2853,209.301,327.0169835,0.640030979
KOKBIV01,O=C(/C=C1\Nc2ccccc2N\C1=C/C(=O)c1ccccc1)c1ccccc1,1.3125,296.49,463.2432886,0.640030859
NOBWOQ,COc1ccc(N2C3Nc4ccccc4C2Nc2ccccc23)cc1,1.3321,262.618,410.3229188,0.640027617
BATFUZ,Nc1nc(-c2ccccc2)nc2c1C(c1ccccc1)c1ccc3ccccc3c1O2,1.3372,318.841,498.1710739,0.64002311
BUNBET,COC1=CC2(C(=O)N(C)C(=O)N2C)N(C=O)c2ccccc21,1.3878,230.595,360.2947461,0.640017659
HUGXEP,COc1ccc(C#Cc2ccc(/N=C/c3cc(C#Cc4ccc(OC)cc4)ccc3O)cc2)cc1,1.2802,379.534,593.0111217,0.640011605
QUCXIY,CN1C(=O)N(C)C(=O)C2(C1=O)C1C=CC(CC1)C2c1ccc(C#N)cc1,1.352,274.46,428.8359988,0.640011568
VEFNAV,COc1ccc2c(c1O)-c1ccccc1CCN(C=O)/C=C\2,1.3232,237.043,370.3730899,0.640011401
HUBZIP,CCCn1cnc(C(N)=O)c1N,1.3319,134.137,209.5868345,0.640006803
INACET02,O=C(O)Cc1c[nH]c2ccccc12,1.3403,138.817,216.8993235,0.640006606
MEPHCB01,COC(=O)Nc1ccc(Cc2ccc(NC(=O)OC)cc2)cc1,1.3357,249.944,390.5358438,0.640002714
RUCBUO,Cc1ccc(C23OC24C(=O)N(Cc2ccccc2)CC(=O)N4c2ccccc2C3O)cc1,1.3537,334.576,522.7730692,0.640002364
MOSYAV,COC(=O)c1cc(C(=O)OC)n(Cc2cccc(C#N)c2)n1,1.3425,236.773,369.9589275,0.639998071
HIRKEZ,C/C(CCC(=O)O)=N\NC(=O)c1cccnc1,1.3396,186.511,291.4302068,0.639985134
MINWAH,O=C1Nc2ccccc2C1c1c[nH]c2ccccc12,1.3307,198.14,309.6013342,0.639984322
TEKSEK,Cc1ccc(-n2c(=O)c3ccccc3n3ncnc23)cc1,1.3509,217.208,339.3985528,0.639979158
OZORIH,CC(=O)n1c2ccccc2c2ccccc21,1.3028,170.557,266.5067521,0.639972528
BOMLUM,COc1ccc2c(c1)CCc1c-2nc2ccnn2c1-c1ccccc1,1.327,261.989,409.3775219,0.639969187
SUSQOP,COc1cc(OC)c(-c2cc(-c3ccccn3)nc(-c3ccccn3)c2)cc1OC,1.3244,320.293,500.4849434,0.639965306
LERTIL,COc1ccc(-c2nc(NCc3cccnc3)n3nc(C)cc(-c4ccccc4)c23)cc1,1.3102,341.634,533.8334196,0.639963681
WALDAQ,Cc1nn(-c2ccccc2)c2c1C(=O)C1(N=NC3C(=O)N(c4ccccc4)C(=O)C31)C(C)(C)C2,1.3558,355.217,555.0603752,0.639961013
DORWUF,CCOC(=O)c1cc2cccc(C)c2c2[nH]c3ccccc3c12,1.3161,244.764,382.4716338,0.639953341
MUBSOS,CCOC(=O)c1cn(C(C)=O)c2ccccc12,1.326,185.203,289.4021837,0.639950251
AYASUO,COC(=O)/C(=C(\C(=O)c1ccc(OC)cc1)c1cccc(C)n1)c1ccccc1,1.302,315.992,493.7760405,0.639950046
REZNEQ,Cc1cc(C=O)c(O)c(/C=N/c2ccccn2)c1,1.3138,194.202,303.4657108,0.639947095
KOMQIP,N#CC(C#N)=Cc1cc2ccccc2c2c1OCCOc1c(C=C(C#N)C#N)cc3ccccc3c1-2,1.3064,377.546,589.9646641,0.639946802
WOGGOR,Cc1ccccc1/C=N/NC(=O)c1ccncc1,1.2942,196.334,306.7989449,0.639943531
YASSIV,CCCc1n[nH]c(=O)n1O,1.3814,110.061,171.9857918,0.639942398
LOVCAC,COc1ccc(N2C=C(C(=O)c3ccccc3)CC(C(=O)c3ccccc3)=C2)cc1,1.3024,322.422,503.8311191,0.639940622
IYOROF,COC(=O)Cn1nnnc1-c1cc(C(=O)OC)ccn1,1.4057,209.468,327.3250914,0.63993872
GIWLIK,COC(=O)c1ccc(C(=O)Nc2cccc3cccnc23)c(N2CCOCC2)c1,1.3565,306.429,478.8418829,0.639937756
AVULAE,COC(=O)c1nn(-c2ccccc2)c(-c2ccccc2)c1C(=O)c1ccccc1,1.3173,308.268,481.7186454,0.63993371
PAMFEO,CCOC(=O)c1c2cccccc-2nc1N1C(=O)/C(=C/C(=O)OC)Nc2ccccc21,1.3683,323.96,506.2414536,0.639931791
KEHTIA,O=C1OCC(c2ccccc2)NC12CC2CO,1.3384,185.082,289.2218202,0.63993097
SEHKUO,CCOC(=O)c1ccc(/C=C/c2cc(C(=O)OCC)c3ccccn23)cc1,1.31,294.584,460.3374083,0.639930613
BAFTIM,COC(=O)C1C(C(=O)OC)N2C(=O)CC3C(OC(C)=O)C(C)OC(C(=O)OC)(C1C(=O)OC)N32,1.4435,357.889,559.2645116,0.639927964
SUMVUS,CCOC(=O)c1nnn(-c2ccc(OC)cc2)c1-c1ccccn1,1.3472,255.665,399.5230051,0.639925603
HOQVEP,O=C(c1ccccc1)c1nn(-c2ccccn2)nc1-c1ccccc1,1.3155,263.437,411.668182,0.63992558
XUTYAN,CC/C(=N\N=C(C)C)c1c(O)c2ccccc2oc1=O,1.3292,217.547,339.960866,0.639917772
VOHJOU,O=C(Nc1ccccc1C(=O)N/N=C/c1ccccn1)c1ccccc1,1.3233,276.343,431.8429963,0.639915438
LUBPEF,CN1C(=O)C2(C=Cc3ccccc3C2=O)c2c1ccc1ccccc21,1.3265,260.441,406.9944432,0.639912914
FAJMUB,Cc1ccc(C(=O)c2c3c(nc4c2c(C)nn4-c2ccccc2)-c2ccccc2C3=O)cc1,1.3286,343.236,536.3862075,0.639904597
YAWWIC,COc1ccc(NN=C(C(=O)c2ccccc2)C(=O)c2ccccc2)cc1,1.3098,290.548,454.049146,0.639904298
TAMVIM,CN1N=Nc2cccc3c2N(CCC3)C1=O,1.3685,167.8,262.2268943,0.639903853
WAFLUN,O=C(CCn1cccn1)c1ccc2ccccc2c1,1.2924,205.642,321.3662055,0.639899269
NIRQUC01,COC(=O)C(Cc1c[nH]c2ccccc12)NC(=O)C(C)c1ccc2cc(OC)ccc2c1,1.3233,345.442,539.8415179,0.639895207
DIWCET,COC(=O)/C=C1\c2cccnc2C(=O)N1Cc1ccccc1,1.3391,233.376,364.7100251,0.639894667
GIGJAH,COC(=O)C1C(O)C(=O)N2CCc3ccccc3C12,1.3774,201.428,314.7835336,0.6398937
DAYSON,CC(=O)/C=C(/C)Nc1cc2ccccc2cc1O,1.2942,197.964,309.3708305,0.63989226
BUFHEQ,CC(=O)OC1C(=O)NC1c1ccccc1,1.3382,162.84,254.4804267,0.639892042
SIBNAV,CCOC(=O)c1ncc(-c2ccc(OC)cc2)o1,1.349,194.626,304.1574876,0.639885612
DIJZED,COC(=O)c1ccc2nc3c(c(-c4ccccc4)c2c1)Cc1ccccc1-3,1.3179,283.105,442.430926,0.639885196
BOJSOI,O=C1/C(=C/c2ccccc2)N=C(c2ccccc2)N1/N=C/c1ccccc1,1.2982,287.408,449.1591215,0.639880137
CUVCUR01,O=C(c1ccccc1)c1ccc(-c2ccccc2)[nH]1,1.2793,205.24,320.748679,0.639877927
DIGXUN,COC(=O)C1C(c2c(N(C)C)nc3ccccn3c2=O)NC(Cc2ccccc2)(C(=O)OC)C1C(=O)OC,1.3664,406.094,634.6489554,0.639871848
ALESUF,COc1ccc(O)c(C2NC(c3ccccc3)C(c3ccccc3)OC2=O)c1,1.3384,297.831,465.4581626,0.639866317
QIMQUB,Cc1cccc(NCN2C(=O)c3ccccc3C2=O)n1,1.3433,211.279,330.1924735,0.63986619
SENZER,CCOC(=O)C1=CC(=O)C2C(N1)c1ccccc1OC2(O)C(=O)OCC,1.4095,272.23,425.4483731,0.639866121
UNEHOL,CCOC(=O)c1c(-c2ccc(OC)cc2)c(C#N)c2c3ccccc3ccn12,1.3195,298.057,465.8133925,0.639863526
WOKROD,COC(=O)C1=NNC(C(=O)OC)=C2COC(C)OCC12,1.4191,212.721,332.4486284,0.639861265
IZOGEL,C=CCC12CCCN3C(=O)OC4(COC(=O)N(c5cccc(OC)c5OC)C4CC1=O)C32,1.3978,336.123,525.3070156,0.639860101
VIPBED01,O=C(Nc1ccccc1)Nn1c(-c2ccccn2)nnc1-c1ccccn1,1.3558,279.888,437.4217448,0.639858451
IROWER,COc1ccc2ccccc2c1COc1ccc(C#N)c(C#N)c1,1.2965,257.425,402.3167291,0.639856564
BALFUP,Nc1ncnc2c1ncn2/C=C1/CC1CO,1.3671,168.73,263.7043489,0.639845345
DONBUD,CCOc1nc(=O)n(C2CC(O)C(CO)O2)cc1C,1.3887,206.676,323.0099243,0.639844118
BOLQEY,Cc1ccn(C(N)=O)n1,1.3433,98.919,154.5989943,0.639842455
OPHSAL11,Oc1ccccc1/C=N/c1ccccc1/N=C/c1ccccc1O,1.3065,257.083,401.7993325,0.639829336
CUVXUO,Cc1c(-c2ccccc2)oc(=O)c2c(NC(=O)c3ccccc3)cccc12,1.3234,285.11,445.6050118,0.639826736
FIPMAS,COc1c2c(OC)c(OC)c(c1OC)CCc1c(C#N)c(C#N)c(c(C#N)c1C#N)CC2,1.3278,342.6,535.459651,0.63982412
JISFAS,Cc1ccc2noc(C(=O)c3ccccc3)c2c1,1.3116,192.051,300.1626653,0.639823077
YIRWUR,COC(=O)CC1Cc2cc(C(=O)O)ccc2CN(CCc2ccccc2)C1=O,1.3345,303.466,474.2977508,0.639821714
LOCKAS,O=C(Nc1ccccn1)c1ccccc1-c1ccccc1C(=O)Nc1ccccn1,1.3209,317.034,495.5059624,0.639818739
OBURIO,Oc1ccccc1/C(=N/c1ccc(/N=C(\c2ccccc2)c2ccccc2O)cc1)c1ccccc1,1.2931,384.681,601.2419626,0.639810632
COSTIO,COc1cc(OC)c2c(-c3ccccc3)c(-c3ccccc3)n3c(C(=O)C(=O)N(C)C)cc1c23,1.3263,362.225,566.1460395,0.639808415
PABRAL,O=C1CN2CCOC2c2ccccc2N1,1.3767,157.506,246.1768365,0.639808368
XUJHIW,Cc1[nH]c(-c2nc3ccccc3[nH]2)c(C)c1C(=O)NCc1ccccc1,1.3157,277.921,434.3834148,0.639805735
FETFUH,CC(=N\O)/C(=N/N)c1ccccc1,1.2919,145.639,227.6306262,0.639804065
TIZYAE,Cn1c(=O)c(C(C2=C(N)CCCC2=O)c2ccccc2)c(O)c2ccccc21,1.3327,298.287,466.2228173,0.639794941
BZALSC01,NC(=O)N/N=C/c1ccccc1,1.3126,131.995,206.3093231,0.639791736
GALCOM,Cc1ccc(C)c(OC(=O)c2c3ccccc3nc3ccccc23)c1,1.3076,265.793,415.4369206,0.639791475
KACTER,COc1ccc(-c2cc3c4c(nn3c(N)c2C#N)-c2ccccc2CCC4)cc1,1.3225,305.402,477.3533905,0.639781776
ASEXOO,CC1(C)CC(=O)c2c(n3c(=O)c4ccccc4c(=O)n3c3ccccc23)C1,1.3638,278.99,436.0709572,0.639781199
YODXAS02,COc1cccc(/C=N/c2ccc3ccccc3c2)c1O,1.3044,225.702,352.7823742,0.639776861
COXYUL,CC1=C(C)C(=O)N(Nc2ccccc2)C1=O,1.3184,174.132,272.1775264,0.639773615
CUFFIS,COC(=O)/C(N)=C/c1c[nH]c2ccccc12,1.3248,173.289,270.8626592,0.639767034
QOQZAY,COC(=O)c1cc(-c2cc(C(=O)OC)c3ccccn23)n2ccccc12,1.3575,272.436,425.836566,0.639766572
AVIFUI,O=Cc1ccccc1-c1cccc2nc(-c3ccccc3)oc12,1.3201,240.705,376.2416031,0.639761786
WIKDUP,Cc1cc(C)nc(NC(=O)c2cnc(C)cn2)c1,1.3095,196.427,307.0325265,0.639759579
IQOCEZ,Cn1c(=O)/c(=C/c2ccccc2)n(C)c(=O)/c1=C/c1ccccc1,1.2981,260.367,406.9779033,0.639757092
MUHWIY,COC(=O)C1(c2ccccc2)OC(=O)c2cc3ccccc3n21,1.3693,238.249,372.4125106,0.639744888
SARSUZ,O=C1OC2(OC(c3ccccc3)=NN2C2=NN=C(c3ccccc3)OC2)c2ccccc21,1.3817,326.093,509.7263861,0.639741259
YUFRAT03,N#C/C(=C\c1ccc(N(c2ccccc2)c2ccccc2)cc1)C(=O)O,1.2923,279.6,437.0542659,0.639737492
MEVWUF,COc1ccc(/C(C(=O)c2ccccc2)=C2/C(=O)N(C(C)=O)c3ccccc32)cc1,1.326,318.167,497.3426971,0.639733934
FEDNIM,COc1cccc(/C=N/c2nc3ccccc3[nH]2)c1O,1.3491,210.325,328.7729225,0.639727257
QUMBUV,O=C1NCc2cccc(c2)CNC(=O)NCc2cccc(c2)CN1,1.3405,256.892,401.5649491,0.639727149
YIQTID,CCCCOc1ccc(-c2nnc(-c3ccc(C#N)cc3)o2)cc1,1.3056,259.666,405.9058875,0.639719718
QERVIT,CC(=O)c1cc(/N=N/c2ccccc2)ccc1O,1.3117,194.443,303.9515521,0.639717082
GODZIK,CN1C(=O)C2=C(C1=O)N(c1ccc(O)cc1)CN(Cc1ccccc1)C2,1.347,275.352,430.4278177,0.639717018
PAPFAQ,COC(=O)/C=C1\OC2(OC13C(=O)N(C)c1ccccc13)C(=O)N(C)c1ccccc12,1.3922,309.885,484.4110308,0.639714995
AFENEF,Cc1ccc(/C=C2\CN(C#N)C/C(=C\c3ccc(C)cc3)C2=O)cc1,1.2608,276.491,432.2164098,0.639705004
DUVHEI,COc1ccc(/C=N/c2ccc(N(CCO)CCO)cc2)cc1,1.2984,257.034,401.8015623,0.639703834
KIXPEN,COC(=O)C1C(C(=O)OC)C2(C(=O)c3ccccc3C2=O)C2C=Cc3ccccc3N12,1.3775,321.672,502.8468433,0.639701739
ADOTUJ,Cc1ccc(/N=N/C2=C(Nc3ccccc3)CCC2=O)cc1,1.2913,239.504,374.39973,0.639701316
AWUSUH,COC(=O)CN/C(=C1\C(=O)N(c2ccccc2)N=C1C)c1ccco1,1.3546,265.94,415.7285082,0.639696328
WOMBOQ,O=c1c2ccc(N(c3ccccc3)c3ccccc3)c3cccc(c32)c2nc3ccccc3n12,1.3273,349.862,546.9268139,0.63968705
WOTSIJ,Cc1cc(Oc2cc(C)c3ccccc3n2)nc2ccccc12,1.3066,244.001,381.440129,0.639683613
PAGZUT,COc1ccc(NC(=O)COc2cccc(OCC(=O)Nc3ccc(OC)cc3)c2)cc1,1.3499,343.218,536.55308,0.639672034
KUFSIO,Cc1c(/N=C/c2ccc(C#N)cc2)c(=O)n(-c2ccccc2)n1C,1.2919,259.933,406.35458,0.639670408
EJILEQ,O=C1C=Cc2ccccc2/C1=C/NC(Cc1ccccc1)C(=O)O,1.3151,257.761,402.9595259,0.639669702
MRFBZI10,Cc1cc2ncn(C3OC(CO)C(O)C3O)c2cc1C,1.3706,215.552,336.9744102,0.639668751
FUHJUO,O=C(COc1ccccc1OCC(=O)Nc1cccc2cccnc12)Nc1cccc2cccnc12,1.3562,374.518,585.4883594,0.639667713
IQUTUM,CC1=C(n2ccc(O)n2)c2ccccc2NC(=O)C1C(=O)OCc1ccccc1,1.3532,305.464,477.5360816,0.639666848
FAKSOC,CON1C(=O)c2ccccc2C2CC(=O)CC1C2(OC)OC,1.3621,237.952,371.9938121,0.639666554
SOYNIE,CC1(C)OC(=O)C(=CNc2ccc(CC#N)cc2)C(=O)O1,1.3514,224.874,351.5539068,0.639657235
XICFIB,c1ccc(-c2nnc(-c3ccccc3Cn3cccn3)o2)c(Cn2cccn2)c1,1.3351,304.038,475.3241554,0.639643487
REMZIU,CC(C)(C)C(=O)c1c(-c2ccccc2)c(-c2ccccc2)n2c1c(C=O)cc1ccccc12,1.2875,355.731,556.141104,0.639641626
KABMUX,O=C(N/N=C(/c1ccccc1)C(O)c1ccccc1)c1ccccc1,1.2989,269.972,422.0688399,0.639639733
BIJMUF,O=C(c1ccccc1)c1ccc(/C(=C(\c2ccccc2)c2ccc(C(=O)c3ccccc3)[nH]2)c2ccccc2)[nH]1,1.2876,427.48,668.3146708,0.639638809
HERLOI,O=CNc1ccc(O)cc1-c1ccccc1,1.3087,172.941,270.3743806,0.639635307
GINZAF,COC(=O)CC1C(=O)NN=C2c3ccccc3N=CN21,1.3873,208.324,325.6932281,0.639632581
ESIVIN,COC(=O)c1ccc(/C=C/c2ccc3cccc(O)c3n2)cc1,1.3172,246.031,384.6474977,0.639627195
KEYMIK,Nc1ccc2c(c1)Cc1cc(N)ccc1OCCOCCO2,1.3365,238.537,372.9328545,0.639624525
DAHLIH,COC1OC(CO)C(O)C(O)C1[N-][N+]#N,1.4375,161.881,253.0875933,0.6396244
FAYBIR,COc1ccc(C(=O)N/N=C(C)/C(C)=N/O)cc1,1.3231,199.981,312.6553498,0.639621232
CTLPRO11,O=C1C2CCCN2C(=O)C2CCCN2C(=O)C2CCCN12,1.3757,224.798,351.4555927,0.639619925
GOYKUA,COc1ccccc1NC(=O)CC(C)=O,1.3125,167.588,262.0136348,0.639615569
RECRAT,CN(C)c1ccc2c(c1)C(=O)OCCNC(=O)c1cccc(n1)C(=O)NCCOC(=O)c1cc(N(C)C)ccc1-2,1.359,426.129,666.2286067,0.639613784
GASJUF,CCCOc1ccc2nc3ccccc3nc2c(=O)n1,1.3413,211.51,330.6848205,0.639612062
TXHPCP10,O=C1c2cccc(n2)OCCOCCOc2cccc(n2)C(=O)c2cccc1n2,1.3768,301.728,471.7377923,0.639609556
NUQJIT,O=C1C=Cc2ccccc2/C1=C/Nc1ccccc1Oc1ccccc1,1.3072,275.549,430.8082293,0.639609416
JADSOZ,O=C1CCCC2=C1C(c1ccccc1)n1c(=O)c3ccccc3c(=O)n12,1.3604,268.667,420.052325,0.639603649
RAQQEI,COC(=O)C1c2cc(-c3ccccc3)ccc2OC1NC(C)=O,1.3359,247.356,386.7346566,0.639601328
BEGPOU,O=C1C(=C(c2ccccc2)c2ccccc2)N=C2CCc3ccccc3N12,1.3063,284.692,445.1088273,0.639600885
GUQFIK,COc1cccc2c3c(cc(OC)c12)C[C@@H](C)C3=C1c2cccnc2-c2ncccc21,1.3207,326.644,510.7009868,0.639599312
ZUBGEK,O=C1CC(c2ccccc2)C2(c3ccccc3)C(=O)c3ccccc3N2O1,1.3341,282.721,442.0310865,0.639595288
EWIWEP,O=C1OC2(O)C(=O)C=C3CCCCN1C2C3,1.4171,167.2,261.4170142,0.639591117
AROFUI,CN/C(=N/n1cnnc1)c1noc(C)n1,1.3943,157.747,246.6387694,0.6395872
AMASAL,N#CC1=C(c2cccc3ccccc23)OC2(N)OC(c3cccc4ccccc34)=C(C#N)C12C#N,1.3253,362.332,566.5152322,0.639580332
KEQHAQ,COC1=CC(=O)/C(=C(/C)NCCO)C=C1,1.3136,169.068,264.3423295,0.639579746
ASANUG,CCOC(=O)C1C(=O)n2ccc3cccc(c32)-c2ccccc21,1.3455,240.836,376.5571787,0.639573519
UHUSOG,OC1(c2ccncc2)c2ccccc2-c2ccccc21,1.3031,211.176,330.18263,0.639573317
AGOLIR,CC(=O)N1C(=O)C2(OC3(CC3)C23CC3)c2ccccc21,1.3369,213.785,334.2629098,0.639571408
FODYAB,Cn1c(-c2ccccc2)c(N=O)c2ccccc21,1.298,193.178,302.0487639,0.639558982
EVIQEF,CCOC(=O)NC(=O)Nc1[n-]o[n+](=O)c1/N=N/c1c(C)cc(C)cc1C,1.3946,275.78,431.2057225,0.63955552
ONIPAF,N#CC1=C(N)OC(c2cc3ccccc3o2)=C(c2ccccc2)C1c1ccccc1,1.3142,315.28,492.9700322,0.639552061
EVISOR,Cc1[nH]n(-c2ccccc2)c(=O)c1C=O,1.3355,160.697,251.2650411,0.639551763
WOKNOZ,CCN1c2ccccc2C(C)n2c1ccc(C(=O)O)c2=O,1.3534,222.95,348.6058689,0.639547466
FIMJEQ,CC(=O)Oc1cc(C=O)cc2c1C(COC(N)=O)C1(OC(C)=O)ON2CC2C1N2C(C)=O,1.4212,334.128,522.4460951,0.639545406
TAPSOV,COC(=O)c1ccccc1Cn1cc(COc2cc3ccccc3cc2C(=O)OC)nn1,1.3523,338.601,529.442113,0.639543005
ISECOZ,CC1(C)CC(=O)C(=NNc2cccnc2)C(=O)C1,1.3233,196.72,307.5949053,0.639542452
GUHBOC,Cc1ccc2nc3c(cc2c1)COc1ccc2c(=O)c(-c4ccccc4)c(C)oc2c1-3,1.3452,319.851,500.1261232,0.639540678
CUVROA,CCc1ccc2c(CC(=O)O)c[nH]c2c1,1.3056,165.202,258.3172031,0.639531545
ACUHUB,Nc1ncnc2c1ncn2CC(=O)OCCN1C(=O)C2C3C=CC(C3)C2C1=O,1.4104,287.742,449.9290594,0.639527485
GIBHUU,COc1ccc(OC)c(Cc2cnc3nc(N)nc(N)c3c2C)c1,1.3473,256.297,400.7648813,0.639519609
QEPPAF,COc1ccc(-c2nc3ccccc3c3ccccc23)cc1,1.2964,233.56,365.2133397,0.639516618
ZABVIL,CC(=O)N1N=C(c2cc3ccccc3oc2=O)CC1c1ccccc1,1.3443,262.366,410.2596021,0.63951215
QOZKEY,C(=C/c1nc2ccccc2o1)\c1ccccn1,1.3123,179.711,281.0217991,0.639491315
DUSWOE,CCOC(=O)c1cn2c(C)cccc2n1,1.3278,163.225,255.2429966,0.639488653
QEVSEQ,CN/C=C1\C(=O)C=C(OC)C=C1OC,1.3215,156.77,245.1499777,0.639486087
NIGWUW,Cn1cnc2c1C1C(=O)N(c3ccccc3)C(=O)C1CC2C1CC(=O)N(c2ccccc2)C1=O,1.3728,351.319,549.377122,0.63948604
ROZTIK,COc1nc(OC)c2cnn(CCCn3ncc4c(OC)nc(OC)nc43)c2n1,1.4081,301.783,471.9174371,0.639482622
UPUSAB,COc1cccc(-c2cccc(-c3ccccn3)n2)c1,1.2908,215.635,337.2024202,0.639482361
XUQGEW,CN(C)/C(=C/C=C(\C#N)C(N)=O)c1ccco1,1.2927,189.844,296.871625,0.639481796
POGCAS,Cc1ccccc1C(=O)N(c1cccc(C)c1C(=O)Nc1cccc2cccnc12)c1cccc2cccnc12,1.3119,422.699,661.006616,0.639477714
KILVEI,N#C/C(=C(\CCCO)NCc1ccccc1)c1nc2ccccc2c(=O)[nH]1,1.3156,290.707,454.605818,0.639470479
TIPDAZ,CN1c2ccccc2C(=O)C12CCC1(O2)C(=O)c2ccccc2N1C,1.3576,261.355,408.7059306,0.639469556
KIDBOP,COc1ccc(/C=N/CC/N=C/c2ccc(OC)cc2O)c(O)c1,1.3175,264.481,413.5962923,0.639466564
VORGOA,Oc1ccc2ccccc2c1/C=N/N=C/c1ccccn1,1.3102,222.967,348.6801973,0.639459888
MODMUO,N#Cc1ccc(COCc2ccc(C#N)cc2)cc1,1.2579,209.435,327.5192747,0.639458549
LIMLOI,Cc1cc(=O)n(C)c(=O)n1C,1.3418,121.932,190.6809229,0.639455684
GICSOA,CN1C(=O)N(C)C2=NC(=O)N(C)C2(C)C1=O,1.4029,169.618,265.2544126,0.639454018
KEMHIT,C1=CC=c2cc3oc(cc([nH]2)=C1)C=CC=C3,1.3099,169.495,265.0622159,0.639453645
TOSCEJ,O=C(OCc1ccccc1)N1OC2C=CC1C1OC1C2,1.373,211.214,330.3059282,0.639449619
TAPPUY,CC1=NN(c2ccccc2)C(=O)/C1=C\c1cn(-c2ccccc2)nc1-c1nnn(-c2ccccc2)c1C,1.3241,389.105,608.5017413,0.639447636
CEZNEC,CC1=NN(c2ccccc2)C(=O)/C1=C\C(C(=O)c1ccccc1)=C1NCCN1,1.3336,296.325,463.4122782,0.639441409
NILLAW,COC(=O)c1c(C#N)c(N)c(C#N)c(-c2ccccc2)c1C(=O)OC,1.3367,266.191,416.2874693,0.639440338
AFIFAY,CCC(=O)NC1OCC(O)C(O)C1O,1.4076,154.717,241.958507,0.639436083
EWOTOZ,CNC(=O)c1nn(-c2ccccc2)c(-c2ccccc2)c1C(=O)c1ccccc1,1.3103,308.873,483.0450395,0.639428986
DEVBIS,COC(=O)/C=C/c1cc(C)ccc1CC(=O)Nc1cccc2cccnc12,1.308,292.368,457.2329969,0.639428917
JOFZIP,Oc1ccccc1/N=C/c1ccncc1,1.2936,162.59,254.2752838,0.639425105
CUPSOX,COc1cccc(/C=N/C(C(N)=O)c2ccccc2)c1,1.2902,220.662,345.0953557,0.639423268
OFUBUP,COC(=O)CNNC(=O)c1ccccc1,1.3407,164.801,257.7352174,0.639419795
LAWJEY,Cc1ccnc2oc(-c3cccnc3NC3CC3)nc12,1.339,211.028,330.032482,0.63941585
VAKQOO,CC1(C)CCC(=O)c2[n-]c3ccccc3[n+](=O)c2-c2ccccc2C(=O)O1,1.3607,282.583,441.9398301,0.639415099
MEGQIY,c1ccc(-c2noc(-c3ccncc3)c2-c2ccccc2)cc1,1.2967,244.11,381.7710219,0.639414691
OYUZUG,COc1cc(N(C)C(=O)N(C)c2cccc3ccccc23)cc(OC)c1OC,1.3189,306.067,478.668809,0.639412876
FADSEM,COC(=O)/C=C/c1c(C(=O)OC)n(C)c2ccccc12,1.3342,217.343,339.9115868,0.639410389
ELLIPU01,COc1ccc2[nH]c3c(C)c4ccncc4c(C)c3c2c1,1.3123,223.418,349.4134515,0.639408698
MAVZUG,CCOc1ccc(C(=O)c2ncc(-c3ccc(OCC)cc3)o2)cc1,1.3217,270.838,423.5760129,0.639408257
HIRQOP,O=C1CCN2CCC(=O)c3cccc1c32,1.3559,157.464,246.2657658,0.639406779
TAHVAB,O=C(O)C(n1nc2ccccc2n1)n1nc2ccccc2n1,1.4025,222.645,348.2068313,0.639404457
LAQRUS,N#C/C(=C\c1ccccc1)COc1ccccc1/C=N/O,1.2843,229.919,359.590469,0.639391252
JODQAX,COC(=O)c1cc(C(=O)OC)cc(N(c2ccccc2)c2cc(C(=O)OC)cc(C(=O)OC)c2)c1,1.3545,374.021,584.9705531,0.639384321
VANPOS,COC(=O)/C=C/c1ccc(N)cc1,1.2879,145.986,228.3231244,0.639383332
HENJEP,CC(=O)/C(=N\Nc1ccccc1)C(=O)c1ccccc1,1.2995,217.422,340.0498956,0.63938264
DUMHUR,CN(C)c1ccc(/C=C/c2nc(N3CCOCC3)c(C#N)c3c2C(=O)c2cc4ccccc4cc2-3)cc1,1.3187,391.471,612.2643358,0.639382334
SLCPYA,Oc1ccccc1/C=N/c1cccnc1,1.2986,161.953,253.2962475,0.639381758
QANSAC,Cc1ccc(Cc2ncn(-c3ccccc3C(=O)c3ccccc3)c2C(=O)N2CCOCC2)cc1,1.3153,375.527,587.3335547,0.639376036
GAKGOO,CC1=c2c(c(C)c3n2CCCC=3)OC1=O,1.3356,161.451,252.5149299,0.639372096
CAVFEK,NC(=O)C12CC3C4N(Cc5ccccc5)C1C1CC4(C(N)=O)C3N(Cc3ccccc3)C12,1.3497,336.86,526.8609084,0.639371786
LIVPEN,O=C(C1=C(C(=O)c2ccccc2)C(c2cccc3ccccc23)N(Cc2ccccc2)O1)c1ccccc1,1.2995,404.581,632.7830908,0.63936759
VONGUD,COc1ccc(N2CCN(C(=O)c3ccccc3O)CC2)cc1,1.3279,249.579,390.3546652,0.639364717
GAZCIV,COC(=O)C(=C/C(=O)c1ccc(C(=O)/C=C(C(=O)OC)\C(=C/N(C)C)C(=O)OC)cc1)/C(=C\N(C)C)C(=O)OC,1.3334,442.882,692.6917485,0.639363759
WILSAL,COc1cc(CCC(C(=O)[O-])[N+](C)(C)C)cc(OC)c1O,1.3096,240.912,376.8020377,0.6393596
IFIBIL,Cc1ccc2c(c1)c(C(=O)c1ccccc1)c1c(-c3ccccc3)c3ccccc3nn12,1.2993,336.792,526.7673745,0.639356225
TAQQAE,CC(NC(=O)c1ccccc1)C(=O)O,1.3279,154.371,241.44778,0.63935564
ZUHSOK,N#CCC12CCCC(OO1)O2,1.3852,118.847,185.8863114,0.639353157
RORKIU,c1ccc(N2c3ccccc3Oc3ccccc32)cc1,1.3174,208.811,326.598592,0.639350582
LEWJUV,Cc1nn(C)c(O)c1-c1nc2ccccc2n(Cc2ccccc2)c1=O,1.3412,274.006,428.5751757,0.639341743
LIWNEK01,COc1ccc(C=C(C#N)C#N)cc1OC,1.2755,178.189,278.7076929,0.639340085
ROGJUT,Oc1cccc(/C=N/OCCCCO/N=C/c2cccc(O)c2O)c1O,1.3607,280.989,439.5057145,0.639329571
KAPQID,O=C1NN=C(c2ccccc2)C(CC(=O)c2ccccc2)N1,1.332,233.628,365.4272809,0.639328294
YUYYIC,COc1cc2c(c(OC)c1O)-n1c(cc3cc(OC)c(OC)c(OC)c31)C2=O,1.3983,292.401,457.3581363,0.639326114