name,smiles,Density,Vint,Veff,pc
HEVDAO,COc1ccc2c(c1)-c1nnc(C)cc1C2=O,1.4142,179.047,265.4637691,0.674468688
APOYEL,COc1ccc2oc(=O)c(-n3cc(-c4ccccc4)nn3)cc2c1,1.437,248.702,368.7476026,0.674450487
YOCRAK01,N#Cc1ccc(/N=C/c2ccccc2O)cc1,1.3452,184.897,274.1487564,0.674440411
KIVLUW,COc1cc2ccnc3c2c(c1OC)N(C(C)=O)C3=O,1.4676,207.632,307.8601534,0.674436096
QEQMAA,N#CC1(C#N)C(C#N)(C#N)C12CCCC2=O,1.3547,173.654,257.4857455,0.6744218
KOWXAW01,O=C1C(Nc2ccccc2)=CC(O)=C2C(=O)c3ccccc3C(Nc3ccccc3)=C12,1.4178,320.807,475.6823046,0.674414408
YEXLOD,CC(=O)c1c2c(n3ccc4ccccc4c13)C(=O)c1ccccc1C2=O,1.4184,267.735,396.9910431,0.674410682
BUPBIZ,O=C(/C=C/c1cccnc1)NNC(=O)/C=C/c1cccnc1,1.3917,236.659,350.9390305,0.674359303
WEZDAH,O=C1c2cccc3cccc(c23)C(=O)N1Cc1ccncc1,1.42,227.186,336.9028526,0.674336825
WUDVAS,Cn1c(=O)cc[nH]c1=O,1.4646,96.369,142.910614,0.674330599
KINREE,CCn1ccc2nc3nc4ccn(CC)c(=O)n4c3n2c1=O,1.4817,225.302,334.1124776,0.674329799
VAGXIK,O=C1O/C(=N\CC/N=C2\OC(=O)c3ccccc32)c2ccccc21,1.4462,247.837,367.5317115,0.674328207
XOWNEE,CON1C(=O)Cc2ccccc2C1=O,1.4374,148.836,220.7258374,0.674302573
BIHROA,O=C1C=CC(=O)N1c1ccc(N(c2ccc(N3C(=O)C=CC3=O)cc2)c2ccc(N3C(=O)C=CC3=O)cc2)cc1,1.449,409.664,607.5373681,0.674302556
DOPQAD,O=C(Nn1cnnc1)c1cccnc1,1.4473,146.268,216.9290668,0.674266488
VOHQER,Cc1cccc2c1C(=O)CC1C(=O)NC(=O)C21,1.4444,177.573,263.3620237,0.674254388
DUFXEH,Cn1nc(C2OC(CO)C(O)C2O)c(O)c1C(N)=O,1.5258,200.403,297.2233314,0.674250568
BAQVEX,O=C(O)CCn1c(=O)c(C(=O)O)c(O)c2ccccc21,1.5075,205.775,305.1963998,0.674237967
BIHJIO,O=c1[nH]cnc2ccccc12,1.4218,115.009,170.5776693,0.674232451
YIKYOI,C#Cc1cccc(Nc2nc3cc(C(=O)O)ccc3n3cccc23)c1,1.4081,260.079,385.7563737,0.674205322
EXORER,CNc1ccccc1-c1nc2ccccc2c(=O)o1,1.4089,200.319,297.125737,0.674189325
NIKWUZ,COC(=O)c1ccn2c1C(O)C(O)C(O)C2CO,1.506,191.116,283.4817728,0.674173857
REQVEP,COc1cccc2cc3c(nc12)-c1cccc(=O)n1C3,1.4274,207.129,307.2352884,0.674170604
DUKCOE,N/C(=N\NC(=O)c1cccc(C(=O)N/N=C(\N)c2ccccn2)n1)c1ccccn1,1.4424,312.903,464.1373785,0.674160312
TAXRUI,O=C(N/N=C/c1ccccc1O)c1ccc(/N=C/c2ccccc2O)cc1O,1.4303,293.611,435.522224,0.674158479
SUCGUS,N#CC1c2ccccc2CC2C(=O)OC(=O)C21,1.4335,177.322,263.0295909,0.674152286
SIGBOZ01,O=C(O)CNC(=O)CNC(=O)NCC(=O)NCC(=O)O,1.5314,212.06,314.5600266,0.674147959
VINPEO,Nc1cc(=O)[nH]c(/C=C(\C(=O)O)c2ccccc2)n1,1.4403,199.816,296.4015251,0.674139581
XOSSOQ,COc1cc(O)cc2c1CN1c3ccccc3C(=O)NC1(C)C2,1.4346,242.008,358.988409,0.674138758
YAGYAI,COc1cc(/C=N/NC(=O)c2ccc(O)cc2)cc(OC)c1OC,1.4192,260.401,386.2738739,0.674135678
GODTEY,O=C1c2ccc(-c3ccc4c(c3)C(=O)N(c3ccccc3)C4=O)cc2C(=O)N1c1ccccc1,1.4271,348.372,516.7757958,0.674126
YIBMEE,C#CCCCn1c2ccccc2c2ccc3c(c21)C(=O)C1OC1(c1ccccc1)C3=O,1.3946,325.192,482.4104841,0.674098119
TAYFOP,Cn1c(=O)c2c(ncn2CCO)n(C)c1=O,1.4834,169.104,250.8597919,0.674097665
PHENDO,O=c1[nH]c2ccccc2c2ccccc12,1.3768,158.599,235.2778967,0.674092221
TEQXOC,C=CN1C(=O)c2ccccc2C1CC#N,1.3871,159.849,237.1353954,0.674083258
ROZXEM,O=C1Nc2ccccc2/C1=N\N=C1\C(=O)Nc2ccccc21,1.4462,224.522,333.0849617,0.674068258
ACDXUR,CC(=O)c1cn(C2CC(O)C(CO)O2)c(=O)[nH]c1=O,1.5087,200.382,297.2780939,0.674055721
LEPMEZ04,CCOC(=O)c1nc(C(=O)OCC)nc(C(=O)OCC)n1,1.4646,227.048,336.8549495,0.674023049
KOTCOL,CC(=O)n1cc(C)c(=O)[nH]c1=O,1.4661,128.295,190.3482906,0.674001324
KUDPAC,O=C1NC(=O)C23C=CC(O2)C2(O)CCCc4cccc(c42)N13,1.5062,221.512,328.6530008,0.673999627
TAQFIC,O=C1C=CC(=O)N1c1ccc2nc3c(cc2c1)COc1ccc2ccccc2c1-3,1.4345,295.004,437.6950816,0.673994323
HEKNAM,O=c1[nH]c(=O)n(C2C=CC(CO)O2)cc1CO,1.5027,178.797,265.301069,0.673939991
KUHSIR,Cc1c[nH]c2c(=O)ccccc12,1.3599,130.904,194.2414943,0.673923975
VIPGOR,COc1ccccc1C(=O)Nc1ccccc1C(=O)O,1.4251,212.877,315.8815878,0.673913923
AKUCEQ,Cc1ccc2nc3c4ccccc4oc(=O)c3n2c1,1.442,194.075,287.9842318,0.673908425
YOGPAN,CN(C)/C=C1/C(=O)OC(=O)c2ccoc21,1.4685,157.784,234.1385589,0.673891565
FOBSEU,O=C1CCN2C(=O)CCN12,1.469,106.692,158.3262585,0.673874321
ISARMT,N#CC(CO)C1COC2OC(CO)C(O)C(O)C2O1,1.5147,203.234,301.5989261,0.673855184
XOBGEC,O=C(O)Cc1ccc(NC(=O)c2cccnc2)cc1,1.4116,202.996,301.2570175,0.673829946
BAPXOI,O=c1c2ccccc2n(-c2ccccc2)n2c(=O)c3ccccc3nc12,1.4291,265.492,394.031733,0.673783296
OSOTAS,O=c1ccn(C2CC(O)C(CO)O2)cn1,1.4842,159.873,237.2857845,0.673757176
PROLIN,O=C([O-])C1CCC[NH2+]1,1.41,91.303,135.513591,0.673755299
QEPBUK,c1ccc(C2=NOC(C3CC(c4ccccn4)=NO3)C2)nc1,1.4251,230.902,342.7140893,0.67374528
OLIDES,COc1cc2c(ccc3c4c(c(O)c(OC)c32)CN(C)CC4)cc1O,1.4229,266.668,395.8026599,0.673739788
REKCAL,O=C(O)CCCNC(=O)C(=O)NCCCC(=O)O,1.4551,199.988,296.8342029,0.673736376
GLUGLY,[NH3+]C(CCC(=O)O)C(=O)NCC(=O)[O-],1.4775,154.531,229.3646811,0.673734941
XADWUX,O=C(/C=C/c1cccnc1)Nc1cccnc1,1.3556,185.77,275.7338492,0.673729397
OBINOF,O=c1c2ccccc2c2cnc3c(-c4ccccc4)ccc1n32,1.4003,236.561,351.135682,0.673702538
XEHZIT,O=C1C=CC(=[N+]([O-])c2ccccc2)C=C1,1.3778,161.635,239.922023,0.673698054
COSHEX,CC(OC1OC(CO)C(O)C(O)C1O)C([NH3+])C(=O)[O-],1.5229,206.506,306.5290152,0.673691526
GIMQID01,Cc1ncc(CO)c(/C=N/CCO)c1O,1.4102,166.672,247.4066051,0.673676436
EHAHEC,CC(NC(=O)c1ccncc1)C(=O)Nc1cccnc1,1.4004,215.772,320.2995206,0.673656956
IPOVAM,N/C(=[NH+]\O)c1ccccc1Oc1ccccc1C(=O)[O-],1.4431,210.908,313.0868001,0.673640664
TUMDIP,O=C(N/N=C(C(=N/NC(=O)c1ccccc1)\c1ccccc1)/c1ccccc1)c1ccccc1,1.3642,365.862,543.1146478,0.673636775
GILQAW,N#[N+][N-]C(=O)c1ccc[nH]1,1.4377,105.848,157.1298261,0.673634043
GIXXUJ,Oc1cccc2cnccc12,1.3818,117.424,174.3194526,0.673613864
ITINII,N#[N+][N-]CC(C[N-][N+]#N)(C[N-][N+]#N)OC(=O)C12C3C4C1C1C2C3C41C(=O)OC(C[N-][N+]#N)(C[N-][N+]#N)C[N-][N+]#N,1.4885,413.451,613.787035,0.673606604
YACGAK01,N#CC(C#N)=C1OCCO1,1.4068,108.159,160.5678823,0.673602955
METSEM,Cc1cc(C)c2c(Cn3cnc4c3c(=O)n(C)c(=O)n4C)cc(=O)oc2c1,1.4543,281.612,418.070643,0.673599079
MUTBAF,NC1=[N+](CC(=O)[O-])CCN1,1.4683,108.993,161.8069691,0.673598922
UBEMIX,Nc1c(=O)[nH]nc2c1ccc1ccccc12,1.4345,164.583,244.3432677,0.673572886
PYMPAZ10,O=c1cc(-c2ccccc2)nc2cccnn12,1.4025,177.908,264.1266435,0.673570821
VUYZUK,N#[N+][N-]C1C(O)C(CO)OC1n1ccc(N)nc1=O,1.506,199.11,295.613267,0.673548931
GEPMOE,O=C1c2ccccc2C(=O)N1c1ccc(O)cc1,1.4351,186.315,276.6219209,0.673536643
XEJXUG,Oc1cnccc1/C=N/n1ccnc1,1.4125,148.918,221.1035243,0.673521603
RESLOQ,COC(=O)/C=C\c1ncc[nH]1,1.4163,120.077,178.2874206,0.673502368
NUHRIU,CCOC(=O)CC1c2ccccc2-c2nc3ccccc3c(=O)n21,1.4139,253.212,375.9705658,0.673488893
KAVSEG,C=C(C)C(=O)Oc1ccc(/C=N/CC/N=C/c2ccc(OC(=O)C(=C)C)cc2O)c(O)c1,1.3917,350.508,520.4375962,0.673487086
KUTCOS,[NH3+]C1CC(C(=O)[O-])NC1=O,1.5007,107.353,159.4024315,0.673471533
PONNUC,CCOC(=O)c1c(O)nc2cnccn2c1=O,1.5065,174.498,259.1035401,0.67346822
ZOKTOI,Cc1cnc2c3c(nccc13)C(=O)c1ccccc1-2,1.4058,195.759,290.6809696,0.673449659
KENCIQ01,O=C1C(c2c[nH]c3ccccc23)=Nc2ccccc21,1.397,196.989,292.5120309,0.673438967
SARGLY10,C[NH2+]CC(=O)NCC(=O)NCC(=O)[O-],1.4472,156.931,233.0377696,0.673414444
ZZZAWJ12,O=C1c2ccccc2C(=O)N1c1ccccc1,1.3978,178.453,265.0014046,0.673403978
IXUTUT,O=C1C=C(n2cc(-c3ccccc3)nn2)CC1,1.3848,181.765,269.9197039,0.673403969
ALEXEW,COC(=O)c1c(C(=O)OC)c2c3ccccc3ccn2c1-c1nc2ccccc2[nH]1,1.4384,310.287,460.7771393,0.673399293
UKIQAJ,COc1cccc2cc3c(c(O)c12)c1ccccc1n3-c1ncccn1,1.4305,266.655,395.9859757,0.67339506
ANSMAL01,COc1ccc(NC(=O)/C=C\C(=O)O)cc1,1.425,173.479,257.6188507,0.673394045
TUPDOY,O=C(O)COc1ccccc1/C=N/NC(=O)c1ccncc1,1.4307,233.758,347.1516461,0.673359907
AFIXIY,C/C(Nc1ccccc1O)=C1\C(=O)Oc2ccccc2C1=O,1.4384,229.389,340.6682778,0.673350044
AZUYEZ,O=C1C=C/C2=N/Nc3ccccc3OCCOCCOC2=C1,1.444,232.377,345.127658,0.673307382
TUFSET,O=c1ccc2cccc3c2n1Cc1ccccc1CO3,1.4136,208.089,309.0654643,0.673284543
AWITIL,Cc1cc(C)c2c(Cn3cnc4c(=O)n(C)c(=O)n(C)c43)cc(=O)oc2c1,1.4543,281.466,418.070643,0.673249856
JOTGOO,COC(=O)N1CCc2cc3c(cc2C2CC(=O)C=C21)OCO3,1.48,227.448,337.836753,0.673248242
NOCFUG,O=C1C=Cc2c3ccccc3nc3c2c1c(Nc1ccccc1)c1cccc(O)c13,1.416,306.439,455.1652738,0.673247758
DOLKEW,COC(=O)/C=C\C=C1\C(=O)Nc2ccccc21,1.3982,183.166,272.0641589,0.673245608
XIDXOZ,COc1ccc2cc(-c3cc(-c4ccccc4)c4ccccc4n3)c(=O)oc2c1,1.4092,300.775,446.7556574,0.673242733
SANKAT10,OCC1OC(n2ncc3cccnc32)C(O)C1O,1.4949,187.771,278.9223761,0.673201636
AWUXAT,O=c1ccc2nccc3c4ccccc4n1c23,1.4272,172.371,256.0522131,0.673186917
HUFLIG,O=C(c1ccccc1)N1C(=O)c2cccc3cccc(c23)C1=O,1.425,236.181,350.8514436,0.673165251
BASGIN,O=C1c2ccccc2C2(O)c3c1cccc3N1C(=O)CCC13OC=CC23,1.471,262.251,389.58072,0.673162162
RAJQAV,OC1=C(c2nc(-c3ccccc3)no2)Oc2ccccc2C1,1.4384,226.985,337.2052321,0.673136056
EXBISX,CCOc1onc2c1C(=O)c1noc(OCC)c1C2=O,1.5136,205.337,305.0583267,0.673107344
XIGNEI,COc1ccc(O)c(/C=N/c2ccc(C#N)cc2)c1,1.3652,206.394,306.6367205,0.673089641
SIJHEB,O=C(Nc1ccc(Oc2ccc(NC(=O)Nc3cccnc3)cc2)cc1)Nc1cccnc1,1.4311,343.773,510.746404,0.673079629
FOVRUE01,N#Cc1ccccc1/N=C/c1c(O)ccc2ccccc12,1.3589,223.788,332.5048904,0.673036718
PIBMEU,N#Cc1ccc(NC(=O)c2cc3ccccc3o2)nc1,1.4129,208.094,309.1890245,0.673031652
CICNAG,COc1ccc2c(c1)CC(=O)n1c-2nc2ccccc21,1.4343,205.784,305.7572689,0.673030606
NUVYOV,COn1nnc2ncccc21,1.4564,115.15,171.0930647,0.673025527
CEVKOD,Nc1cc2n(c(=O)n1)C1(CO2)OC(CO)C(O)C1O,1.5731,192.589,286.1586488,0.67301478
OBAKEK,COc1ccc2cc3c4c(cccc4c2c1OC)N(C)C3=O,1.4169,231.183,343.51788,0.672986804
IKEGAH,NNC(=O)c1ccc[nH]1,1.4229,98.222,145.9504034,0.672982038
DAZLAS,O=C(N/N=C/c1ccccc1O)c1ccccc1O,1.418,201.825,299.8973244,0.672980329
WIGYIV,O=c1[nH]ncc2ccccc12,1.4173,115.159,171.119262,0.672975086
HUBBOY,COc1nc(N)c(C#N)c(-c2ccccc2C(N)=O)c1C#N,1.4096,232.363,345.2804842,0.67296882
GANZEA,CC1(O)C(=O)NC(=O)N(C2CC(O)C(CO)O2)C1O,1.545,199.698,296.753789,0.672941703
SURBUE,COC(=O)c1cc(=O)n2c(c1)[nH]c1ccccc12,1.4549,185.927,276.2939153,0.672931938
ZEVJIW,CN1C(=O)C2(COC(=O)C2)c2ccccc21,1.438,168.685,250.6765696,0.672918894
AJESAK,CC1=NOC(=O)/C1=C\c1ccccc1O,1.4192,159.88,237.5976033,0.672902411
NELSAY,O=C(c1ccccc1C(=O)n1nnc2ccccc21)n1nnc2ccccc21,1.4482,284.025,422.0898146,0.672901809
LOBQAW,Cn1c2ccccc2n2c(=O)c(C#N)c(CCCO)c(C#N)c12,1.4007,244.203,362.9107223,0.672901033
WAFQEB,O=C(O)c1ccc(NC2OC(=O)c3ccccc32)cc1,1.4485,207.568,308.4678372,0.672899975
DUPMAC,N#C/C1=C2\C=CC=C(N2)C2(OCCO2)c2cccc(n2)C2(OCCO2)c2cccc1n2,1.4678,315.258,468.5304101,0.672865609
PYRDNO11,[O-][n+]1ccccc1,1.357,78.254,116.2996545,0.672865284
QEGZEK,CC1=NOC(=O)/C1=C\c1cn(-c2ccccc2)nc1-c1ccc(O)cc1,1.4118,273.128,405.9299429,0.672845166
LAKBIM,Cn1c(=O)c2c(ncn2CC(O)CO)n(C)c1=O,1.4912,190.391,282.9673813,0.672837269
AYOMUY,O=C1C=C(Nc2cccc3cccnc23)C(=O)c2ccccc21,1.4066,238.372,354.279291,0.672836392
ODAZAV04,Oc1cc(-c2ccccc2)nn1-c1ccccn1,1.3837,191.437,284.5356696,0.672804926
EYAQIF03,CC(=O)N/N=C/c1ccccc1O,1.385,143.649,213.5090702,0.672800457
WEHWUC,CC#Cc1cn(C2CC(O)C(CO)O2)c2ncnc(N)c12,1.4395,223.619,332.3763754,0.672788491
MAQXEJ,O=C(NN=C1CCC1)c1ccc(O)cc1,1.389,164.156,243.9968689,0.672779125
VEQSEQ,COc1ccc(-c2ccc(-c3ccc(-c4ccc(OC)c5ncccc45)cc3)cc2)c2cccnc12,1.3727,381.041,566.3771995,0.672768961
VACKOB,O=c1oc2ccccc2cc1-c1ccccn1,1.4017,177.782,264.2640817,0.672743715
VUWXAM,Cn1cc(C=O)nc1N,1.4064,99.337,147.6627055,0.672729107
PILVAI,Nc1ccccc1NC(=O)/C=C\C(=O)O,1.4236,161.704,240.3753987,0.672714433
TIYQEY,O=C(O)c1ccccc1C(=O)Nc1cccc2ccccc12,1.4003,232.212,345.1998112,0.672688665
FUZPUM,COC1=Cc2ccnc3c2c(cc2ccccc23)C1=O,1.4082,207.103,307.8737053,0.672688172
ZUMHAT,O=C1Oc2ccc3ccccc3c2N/C1=C\C(=O)c1ccccc1,1.419,248.038,368.7369243,0.672669276
FOGDOW,COC(=O)c1nnn(-c2cc[nH]n2)c1C,1.467,157.675,234.403396,0.672665169
ABORER,O=c1cc(-c2ccccc2)nc2ccccn12,1.387,178.846,265.886739,0.672639789
HOWCUT,COC(=O)/C=C1/C(=O)N(C)c2ccccc21,1.4047,172.612,256.6191408,0.672638835
FIXJAX,CNC(=O)c1nc2ccccc2[nH]c1=O,1.4432,157.167,233.6593491,0.672633047
IBALUV,O=Cn1c2ccccc2c2ccccc21,1.37,159.038,236.4456994,0.67261955
OBUBAQ,O=C1c2ccccc2C(=O)N1/N=C/c1c(O)ccc2ccccc12,1.4329,246.385,366.3133548,0.6726072
KICYUT,COc1ccc(C2=C(C)C(C#N)=C(C#N)C(=C(C#N)C#N)N2)cc1,1.3541,258.256,383.9655974,0.672601925
FUYJIS,Cn1ncc2c(=O)n(C)n(C)c(=O)c21,1.4638,148.086,220.1734333,0.672587958
JOHJIB,C[N+](CC(=O)[O-])=C(N)N,1.4308,102.314,152.120473,0.67258534
HIHPUL,CCOC(=O)c1ccc(O)c(/C=N/c2ccc3ccc4cccc5ccc2c3c45)c1,1.3935,315.086,468.4911813,0.672554816
YIBXUD,O=C1OC(Nc2ccccc2CO)c2ccccc21,1.4165,201.125,299.0481437,0.672550572
ZIPBOP,O=C(OCC#CC#CCOC(=O)c1ccncc1)c1ccncc1,1.3876,257.61,383.0530132,0.672517879
NAXDOF,c1coc(-c2nnc(-c3ccco3)o2)c1,1.4716,153.32,227.9858933,0.672497749
YIKXUO,O=C(O)c1cn(-c2ccccc2)nc1C(=O)O,1.4805,175.034,260.2766527,0.672492128
FEDVAM,COc1cc(/C=N/NC(=O)c2nc[nH]n2)ccc1O,1.4648,199.041,295.9856129,0.672468496
FIZJED,COc1nnc(OC)nn1,1.4851,106.811,158.835563,0.672462753
DIXFAR,CC(=O)Nc1ccc(C(=O)O)cc1,1.4133,141.479,210.3899516,0.672460823
UPAJAY,O=c1c2ccccc2nc2n1-c1ccccc1C2(O)c1ccccc1,1.4102,258.23,384.0099555,0.672456524
PICSAL,O=C(N/N=C/c1ccccn1)c1ccccc1O,1.3982,192.543,286.3295389,0.67245245
JUZCEM,Nc1ncc(CC(O)C(O)CO)nn1,1.4732,151.666,225.5437247,0.672446108
WAPLUX,Cc1cccc(N2C(=O)c3ccccc3C2O)n1,1.4043,190.913,283.9088876,0.672444606
JEZMEJ,Nc1ccc(C(=O)N/N=C/c2ccccc2O)cc1,1.3961,204.035,303.4312368,0.672425826
BIYHAS,O=C1CCCC(=O)N1O,1.4803,97.34,144.7599339,0.672423629
MUTXAA,O=C(Nc1ccn(C2OCC(O)C2O)c(=O)n1)c1ccccc1,1.4779,239.585,356.3016469,0.672421815
MUQRIB,COc1cccc2c1c(=O)n(C)c1ccccc21,1.3958,191.268,284.4537472,0.672404572
BIJCAZ,O=C(c1ccc(C(=O)n2cccc2)cc1)n1cccc1,1.379,213.832,318.0186009,0.672388342
BAWRUP,O=C1Cc2cc3c(cc2C2C(O)C(O)CC24CCCN14)OCO3,1.4856,238.349,354.4830179,0.672384819
CILHAG,COc1ccc(NC=C2C(=O)c3ccccc3C2=O)cc1,1.3951,223.366,332.2027779,0.672378483
PUNMER01,O=C(O)c1ccc(/N=C/c2ccccn2)cc1,1.3892,181.702,270.2410469,0.672370101
REFTIF,OC1c2ccccc2C=NN1C1=NCCN1,1.4351,168.128,250.0574908,0.672357383
OZOQUS,C#CCOC1C(O)C(O)C([N-][N+]#N)C(O)C1O,1.4739,184.136,273.8773426,0.672330169
CAFGOF,Cc1nc2ccc(Cc3ccc4nc(C)oc(=O)c4c3)cc2c(=O)o1,1.441,258.851,385.0095417,0.672323597
TAPFAR,Nc1c(Oc2ccccc2)cc(O)c2c1C(=O)c1ccccc1C2=O,1.4426,256.226,381.1166302,0.672303383
GATHOY01,N#[N+][N-]C1CC(n2ccc(=O)[nH]c2=O)OC1CO,1.5137,186.656,277.6418584,0.672290558
FUGSEG,O=c1n(CO)c2ccccc2n1CO,1.4641,147.978,220.1155779,0.672274091
SODBIW,CNn1cn[n+](CC(=O)[O-])c1,1.4543,119.801,178.2033165,0.672271439
OCAMOW,c1ccc2cc(-c3nnc(-c4nnc(-c5ccc6ccccc6c5)o4)o3)ccc2c1,1.4196,306.775,456.3394256,0.672251799
KEFTEU,CCOC(=O)c1c(O)nc2c3ccccc3ccn2c1=O,1.4572,217.62,323.7323368,0.672222003
NOKLOP,COc1ccc(-c2nnc3n2c2nnc(-c4ccc(OC)cc4)n2c2nnc(-c4ccc(OC)cc4)n32)cc1,1.4616,396.518,589.8637705,0.672219621
SAGPIB,O=C(O)Cc1c[nH]c2cccc(C(=O)O)c12,1.4598,167.5,249.1845964,0.672192433
THYMDM10,CC12C(=O)NC(=O)NC1C1(C)C(=O)NC(=O)NC21,1.5353,183.271,272.6592656,0.672161276
LEJMET,N#Cc1ccc(OCC#CCOc2ccc(C#N)c(C#N)c2)cc1C#N,1.3455,280.462,417.254754,0.672160107
FADMIG,O=c1[nH][nH]c2ccccc12,1.4295,104.668,155.7188738,0.672160012
BUFFIS,O=C(O)c1cccc(NC2OC(=O)c3ccccc32)c1,1.4478,207.43,308.616979,0.672127634
LEWKAC,CCn1c(=O)c(-c2c(C)nn(C)c2O)nc2ccccc21,1.4174,223.736,332.878395,0.672125327
YOFBOM,O=C(Nc1cccc(NC(=O)c2cnccn2)n1)c1cnccn1,1.455,246.313,366.4703642,0.672122562
BIPHIM,O=C1c2ccccc2C(=O)N1N1C(=O)c2ccccc2C1=O,1.4735,221.216,329.1317164,0.672119972
BALGUR01,COC1=C/C(=C/Nc2ccccc2O)C(=O)C=C1,1.3951,194.477,289.3516562,0.672112966
PHPYHP,CN1C(=O)C(=c2ccc3c(c2)N(c2ccccc2)c2ccccc2N=3)C(=O)N(C)C1=O,1.429,320.331,476.6095038,0.672103677
CEHYUL01,O=C(O)c1ccc(-c2cc(-c3ccccn3)nc(-c3ccccn3)c2)cc1,1.3901,283.511,421.8294643,0.672098618
WELMEF,Cc1cn(C2CC(O)C(CO)([N-][N+]#N)O2)c(=O)[nH]c1=O,1.5167,208.317,309.9505669,0.672097496
AYAVEC,Cn1c(=O)c2cc(C(=O)c3ccccc3)ccc2n(C)c1=O,1.4116,232.53,345.9784602,0.672093863
GAVKIX,Cc1c(N)[n-]o[n+]1=O,1.507,85.196,126.7633681,0.672086907
CANCOK01,COc1cccc(/C=N/NC(=O)c2ccncc2)c1O,1.4189,213.227,317.2750052,0.672057352
MEYDIF,O=c1c2ccccc2n(CCO)c2ccccc12,1.3923,191.648,285.1688145,0.672051046
DIFMIQ,O=C(Nc1cnc2ccccc2c1)c1cccnc1,1.3891,200.114,297.7749665,0.672030971
ABABOV,Cn1c2ccccc2c2c(=O)[nH]c3ccccc3c21,1.4036,197.255,293.5212992,0.672029596
CUDTOM,Oc1cc(/C=N/c2ccccc2)c(O)cc1/C=N/c1ccccc1,1.3732,256.903,382.2828633,0.672023323
HAGGAY,CCOc1ccc2nc3c(nc2c1)C(=O)c1ncccc1C3=O,1.4471,235.259,350.0904682,0.671994874
RENVOY,O=C(O)CNc1ccccc1C(=O)O,1.4596,149.122,221.9137255,0.671981869
IXIREM,O=C1NC(=O)C2(CC3CC(C(=O)O)C2C3)N1,1.5161,164.927,245.436819,0.671973344
LETFUO,O=C(NN1C(=O)c2cccc3cccc(c23)C1=O)c1ccncc1,1.4478,244.386,363.6849817,0.671971658
WUFBEF,C#Cc1cccc(N2C(=O)c3cccc4cccc(c34)C2=O)c1,1.3807,240.098,357.3037966,0.671971589
QODFIZ,COC(=O)c1ccc(-c2noc(-c3ccc4c(c3)OCO4)c2C(=O)c2ccccc2)cc1,1.4256,334.308,497.5108994,0.671961158
RUVWIQ,C(#Cc1nc2ccccc2o1)c1ccc(C#Cc2nc3ccccc3o2)cc1,1.3841,290.284,432.0246014,0.67191544
USOBUC,O=C1ON=C(c2ccccc2)/C1=C/c1ccc(O)cc1,1.3955,211.941,315.4293853,0.671912669
UBUTET,Cc1ccc2c(-c3nccc4c3[nH]c3ccccc34)cc(=O)oc2c1,1.4133,257.455,383.1676497,0.671912152
FIDTUH,CCOC(=O)c1cc(-c2cc(-c3cccnc3)nnc2-c2cccnc2)c(=O)n(C)c1C,1.4029,339.738,505.630671,0.671909399
HUGHAV,CCOC(=O)c1cnn2c(=O)[nH]c3ccccc3c12,1.4629,196.078,291.8224872,0.671908467
WALPEH,O=C(CCCCC(=O)ON1C(=O)CCC1=O)ON1C(=O)CCC1=O,1.4931,254.136,378.2429569,0.67188561
XIZXOU,O=c1c(O)c(-c2nc3ccccc3[nH]2)oc2ccccc12,1.4621,212.184,315.8208176,0.671849315
FABFUJ01,Nc1ncnc2c1ncn2CCO,1.4642,136.452,203.1016438,0.671840943
XIGRIO01,Oc1ccccc1/N=C/c1ccc(/C=N/c2ccccc2O)cc1,1.3654,258.299,384.4666968,0.671837124
SOYCAM,O=C(c1ccccc1)c1n[nH]c2c(=O)oc3ccccc3c12,1.4427,224.313,333.880098,0.67183699
ZECKEZ,O=C(Nc1ccccc1)C(O)C(O)C(=O)Nc1ccccc1,1.4125,237.034,352.8243103,0.671818787
LUQDUY,COc1ccc(-c2cn(-c3nc(OC)nc(OC)n3)nn2)cc1,1.4605,239.937,357.1486569,0.67181269
NAKSUQ,Cn1nc(-c2cccnc2)oc1=O,1.4523,136.006,202.4482436,0.671806273
KONHEA,CC(=O)C(=N/O)/C(=N\O)C(C)=O,1.4387,133.41,198.5845445,0.671804547
WOLZED,COc1ccc(NC2=CC(=O)c3ccccc3C2=O)cc1,1.4015,222.155,330.685762,0.671800922
FALHEI01,NC1=NC(=O)c2ccccc21,1.4092,115.613,172.1028457,0.671766928
CEZBIS,Nc1ncnc2c1ncn2C1CC(O)C(CO)O1,1.5035,186.305,277.339351,0.67175826
RETZAU,NC(=O)NC(=O)/C=C/c1ccccc1,1.3946,152.037,226.3281674,0.671754655
QUDTUH,O=C1C=Cc2ccccc2/C1=N/Nc1ccccc1C(=O)O,1.4174,229.869,342.2012176,0.671736359
LIQRAF,O=C1c2ccccc2C(=C2c3ncccc3-c3cccnc32)c2ccccc21,1.3924,286.89,427.0888279,0.671733797
KINRII,CCn1ccc2nc3c(nc4ccn(CC)c(=O)n43)n2c1=O,1.4705,226.137,336.6572308,0.671712886
EYOFII,c1ccc2c(c1)[nH]c1cc3oc4ccccc4c3cc12,1.4054,204.042,303.7667544,0.67170616
PIJCAM,O=C(NC1C(=O)OCC1O)OCc1ccccc1,1.4773,189.57,282.2327259,0.671679726
ZIPWIE,N#CC(C#N)=C(C#N)/C=C/n1c2ccccc2c(=O)c2ccccc21,1.3594,264.265,393.4494016,0.67166197
LIKCEN01,OCc1nc2ccccc2[nH]1,1.4012,117.854,175.4742496,0.671631309
UPUPUR,O=C(O)C1=CC=C/C(=C/NCc2ccco2)C1=O,1.4346,190.525,283.6757719,0.671629441
ADENOS13,Nc1ncnc2c1ncn2C1OC(CO)C(O)C1O,1.5323,194.409,289.4608559,0.671624491
NANMUN,O=C(c1ccccc1)c1nc2ccccc2[nH]c1=O,1.4056,198.426,295.4419909,0.671624231
NULBII,Cc1ccc(N2C3=C(C(=O)C(=O)c4ccccc43)C3(O)C(=O)c4ccccc4C23O)cc1,1.4297,330.062,491.4440672,0.671616613
NEJDEO,COc1ccc(-c2cn[nH]c2-c2ccc(O)cc2O)cc1,1.414,222.499,331.2984402,0.671596884
ZAFWUC,Nc1ccccc1C(=O)N/N=C/c1cccc(O)c1O,1.428,211.721,315.2531548,0.671590425
HAMDEG,Nc1ccc2c(c1)C(=O)c1ccccc1-2,1.3767,158.013,235.2949866,0.67155277
SESBAN,O=C1NC(=O)C2(CCC(O)C2)c2ccncc21,1.4576,177.561,264.4072489,0.671543616
HAVJOD,O=c1cnc(-c2ccccc2)c[nH]1,1.3793,139.11,207.1550196,0.671526088
LAFFAZ,CNC(=O)C1OC(CO)C(O)C(O)C1O,1.5089,163.393,243.3176152,0.671521459
EOISOX10,O=C1/C(=N/O)c2ccccc2N1CCO,1.4332,160.336,238.7652927,0.671521385
ISOXAZ,c1cc(-c2cnoc2)no1,1.4446,105.001,156.3663968,0.671506169
GADSIR,Cc1ccc2[n-]c3cc(OC(=O)c4ccccc4)c4ccccc4c3[n+](=O)c2c1,1.3998,302.806,450.9364073,0.671504884
SIKSEK,COC(=O)CCCNC1=CC(=O)c2ccccc2C1=O,1.4015,217.289,323.5890398,0.671496785
UBERIC,CN1C(=O)N=C(Nc2ccccc2)C1=O,1.4166,159.844,238.0468536,0.671481255
SUCPYR10,O=C(O)CC(C(=O)[O-])[n+]1ccccc1,1.4393,151.108,225.0436141,0.671460955
DXCYTD,Nc1ccn(C2CC(O)C(CO)O2)c(=O)n1,1.4972,169.123,251.874606,0.67145713
NALIDX,CCn1cc(C(=O)O)c(=O)c2ccc(C)nc21,1.4255,181.535,270.361281,0.671453395
IGUTIN,Oc1cc(O)cc(-c2c3ccccc3nc3c(O)cccc23)c1,1.4219,237.674,353.9703887,0.671451646