name,smiles,Density,Vint,Veff,pc
YOTWAI,COc1cc(-c2nnc(-c3nnc(-c4cc(OC)c(OC)c(OC)c4)o3)o2)cc(OC)c1OC,1.4694,356.742,531.3194052,0.671426634
FUBZEJ,Nc1ncnc2c1ncn2C1COC(CO)OC1,1.5071,185.762,276.6768723,0.671404149
ZEMRAK,CCc1cn2c(nc1=O)OC1C(O)C(CO)OC12,1.5066,188.035,280.0625945,0.671403478
AXUTUJ,CN1C(=O)C(C2C(=O)N(C)C(=O)N(C)C2=O)C(=O)N(C)C1=O,1.5159,228.067,339.6910545,0.671395366
KUDPEG,O=C1OCC23C=CC(O2)C(O)c2ccccc2N13,1.4946,182.806,272.2877441,0.671370651
SUHMEQ,COC(=O)c1cc(-c2ccccc2)nnc1C(=O)OC,1.4215,213.39,317.8442217,0.671366617
GESJET,COC1=C(C)C(=O)C2=C(C1=O)C(O)(COC(N)=O)C1(O)C3C(CN21)N3C,1.5004,271.299,404.1069657,0.671354426
XABSUS,COC(=O)c1c(C(=O)c2ccccc2)noc1-c1cccc(OC)c1,1.4163,265.34,395.2411174,0.671337035
PUKYUS,O=C(N/N=C(/c1ccccc1)c1ncccn1)c1cccnc1,1.3938,242.44,361.1334509,0.671330776
NAGLAI,Nc1ncnc2c1ncn2CC1CC(O)C(CO)O1,1.486,198.893,296.2679022,0.671328208
OZOJIY,NNC(=O)c1ccc(CN2C(=O)c3cccc4cccc(c34)C2=O)cc1,1.431,268.848,400.4835034,0.67130855
CASZAA,CC(=O)Nc1cc(=O)[nH]c2nc(C)nn12,1.4828,155.677,231.9057068,0.67129439
DIOXAZ10,c1cc(-c2ccno2)on1,1.4577,104.024,154.9611695,0.671290752
RUFCIF,O=C(N/N=C/c1cccnc1)c1ccccc1,1.3639,183.968,274.0558736,0.671279172
ILOXIS,CCOc1nc(O)cc2ccccc12,1.3862,152.048,226.5073957,0.67127168
OPADNA01,Nc1ncnc2c1ncn2CC(O)CO,1.4767,157.836,235.1303383,0.671270246
HICDOM,c1ccc2c(c1)C1=NCCN1c1c(-c3nc(C4CC4)no3)ncn1-2,1.4491,244.714,364.553794,0.671269931
KUTSIC,COC(=O)c1ccccc1NC(=O)CO,1.4325,162.688,242.3592757,0.671267892
DISLOJ01,COc1ccc(NC(=O)c2c(O)c3cccc4c3n(c2=O)CC4)cc1,1.4484,258.675,385.3534508,0.671266858
TEKKAV,OCc1cccc(CO)n1,1.3785,112.451,167.5216274,0.671262581
HAVJAP,CC(=O)Nc1ccc(-c2ccc(=O)[nH]n2)cc1,1.4082,181.338,270.1454063,0.67126072
DIWMAY01,O=C1C=Cc2ccccc2/C1=C/Nc1ccc(C(=O)O)cc1,1.3978,232.13,345.8172095,0.671250573
LENSAB,Oc1ccccc1-c1nc2ncccc2o1,1.4375,164.435,244.9700687,0.67124527
UYITON,O=C(Nc1cccnc1)c1ccc(CN2C(=O)c3cccc4cccc(c34)C2=O)cc1,1.4148,320.759,477.8591192,0.671241768
KIYNOX,COc1ccccc1OC(=O)Nc1ccncc1,1.4164,192.084,286.1671886,0.671229993
IJAVEU,O=C([O-])C[N+]1(CCO)CCOCC1,1.4289,147.509,219.763202,0.671217923
DICNUY,CCCCN1C(=O)c2ccc3c4ccc5c6c(ccc(c7ccc(c2c37)C1=O)c64)C(=O)N(CCCC)C5=O,1.4207,393.988,586.9891467,0.671201507
PEHCIR,COc1ccc(/C=N/n2cnnc2)cc1O,1.4265,170.393,253.8691004,0.67118448
SINDID01,O=C1c2ccccc2C(=O)N1CN1C(=O)c2ccccc2C1=O,1.4673,232.485,346.3844972,0.671176112
PYDCXA10,O=C(Nc1ccccc1)c1cccnc1,1.354,163.05,242.9324276,0.671174291
METXAN,O=C(Nc1cccnc1)c1ccccn1,1.3879,159.866,238.1895076,0.671171462
ITAQUR,N#CC1=C(N)Oc2c(c(=O)oc3ccccc23)C1c1ccc(O)cc1,1.4509,255.094,380.0755126,0.671166628
WUDHIM,COC(=O)n1cnc(/C=C/C(=O)[N-][N+]#N)c1,1.456,169.212,252.1179593,0.671162024
EXULOY,Cc1ccc2c(c1)C(=O)C([N-][N+]#N)(C(O)C(=O)c1ccccc1)CO2,1.4259,263.493,392.5932034,0.671160371
WOLZIH,COc1ccc(NC2=CC(=O)c3ccccc3C2=O)c(OC)c1,1.4126,243.875,363.3665859,0.671154172
AVUVIW,CC(=O)NC1OC(CO)C(O)C(O)C1O,1.5078,163.415,243.4951251,0.671122265
TILNAG,Cc1ccc2nc3c(nc2c1)c(=O)n(C)c(=O)n3C,1.443,197.786,294.7145253,0.671110458
XUQSUY,Cc1ccc2c3c(ccc2c1)C(=O)c1c(ccc2c1NC1CC2OC(C)C1O)C3=O,1.4375,309.438,461.0946816,0.671094273
YABSID,COC(=O)C1Cc2c[nH]c3cccc(c23)C(OC)C(=O)N1,1.4414,222.741,331.9253074,0.671057599
COXQOY,C/C(NCc1ccccn1)=C1\C=Cc2ccccc2C1=O,1.3466,228.502,340.5133466,0.671051523
SEWQAN,O=c1cc(-c2ccccc2)n2nc(-c3ccccc3)cc2o1,1.4048,228.524,340.5481569,0.671047531
PIPNUX,CN1C(=O)Nc2cccc3cccc1c23,1.4113,156.4,233.0691611,0.67104545
DOBYOJ,O=C1OCCC12CCC=[N+]2[O-],1.4629,118.109,176.0132056,0.671023515
BUQLAC,COC(=O)CN1C(=N)c2ncccc2C1=O,1.4538,167.907,250.2258413,0.671021822
GIRRUV,c1c(OCc2nnn[nH]2)cc(OCc2nnn[nH]2)cc1OCc1nnn[nH]1,1.5298,271.046,403.931921,0.671019015
COTRIM,O=[N+]([N-]c1ccccc1)c1cc[n+]([O-])cc1,1.414,169.479,252.5773498,0.670998409
BOCQUH,O=C1NC(=O)C(c2ccc(O)cc2)N1,1.4748,145.102,216.2490026,0.670995002
ZZZKEA02,O=[n+]1o[n-]c2ccccc21,1.4799,102.418,152.6365949,0.670992432
WOCGAW,Cc1ccc2oc(=O)c(C#N)c(/C=C/c3cccc4ccccc34)c2c1,1.3632,275.544,410.6553176,0.670986076
SIXWUS,CC(=O)N(C(C)=O)c1cnc2cccnn12,1.4331,169.558,252.6999313,0.67098554
MUVFEP,O=C(CC(=O)n1ncc2ccccc21)n1ncc2ccccc21,1.4262,237.577,354.0750668,0.670979186
VEZMUK,CNC(=O)c1nc(C)n(C)c(=O)c1O,1.4486,151.588,225.9223502,0.670973898
LEQSIJ,N#CC1CC(c2ccccc2)C(=O)NC1=O,1.3906,171.524,255.6390495,0.670961656
PUJJIP,N#Cc1c(N)nc2c(c1N)C(C(C#N)C#N)c1ccccc1O2,1.4006,240.316,358.1703026,0.670954566
SASFAU01,O=C(c1ccccn1)c1cccc(C(=O)c2ccccn2)n1,1.3892,231.851,345.5620221,0.670938891
VUJLES,O=CN/C(=C\c1ccc2ccccc2n1)c1ccccc1,1.3477,226.609,337.7517876,0.670933533
EWEBIU,O=C1C=C(c2ccccc2)C2(O1)C(=O)N(c1ccccc1)C(=O)c1ccccc12,1.412,300.71,448.1974782,0.670931932
SOXYUZ,Nc1ccc2cccc3c2c1C(=O)C=C3,1.3895,156.406,233.1274617,0.670903371
YISCIO,O=c1ccn(C2OC3CCC4OC(n5ccc(=O)[nH]c5=O)C5CC2C3C45)c(=O)[nH]1,1.5295,291.462,434.4358515,0.670897669
DUWXEA,Cn1c(=O)c2[nH]cnc2n(C)c1=O,1.4931,134.352,200.2648739,0.670871518
BIZZER,O=Cc1c2ccccc2nc2ccccc12,1.3719,168.147,250.6434931,0.670861222
TOPHUB,N#C/C(N)=C(C#N)/N=C/c1ccccc1O,1.3567,174.137,259.5733235,0.670858614
XADYAF,O=C(/C=C/c1cccnc1)Nc1ccncc1,1.348,186.019,277.2884317,0.6708502
ZEDQAA,O=NN(c1ccccn1)c1ccccn1,1.4044,158.699,236.567878,0.670839174
JEFTEU,O=C(O)CNc1ncccn1,1.4532,117.328,174.8975945,0.670838272
HUDYOV,O=C(O)COc1ccccc1/C=N/NC(=O)c1ccccn1,1.4289,233.168,347.5889566,0.670815328
SAGVOL,O=C1c2ccc3c4ccc5c6c(ccc(c7ccc(c2c37)C(=O)N1CCCCO)c64)C(=O)N(CCCCO)C5=O,1.4487,410.74,612.3129641,0.670800757
RFOXAZ,O=C1NC2OC(CO)C(O)C2O1,1.5754,123.771,184.5149353,0.670791228
APACIG,O=C/C=C/c1cccc2[nH]c(C(=O)c3ccccc3)nc12,1.3855,221.966,330.9093113,0.670775927
LUYWAF,O=C1/C(=C(\Nc2ccccn2)c2ccccc2)c2nc3ccccc3nc2N1c1ccccc1,1.3929,352.776,525.9448413,0.670747144
YUMDOA,COC(=O)c1c(O)c2ccccc2c2[nH]ccc12,1.4298,187.799,279.988325,0.670738682
QIKWIS,CC1=CC(=O)/C(=C2/CC(c3ccccc3O)Nc3ccccc3N2)C(=O)O1,1.4328,281.509,419.7009538,0.670737098
DEBVAH,O=C1C(=O)N2CCCN3CCN(CCCN1CC2)C(=O)C3=O,1.4682,233.763,348.5297129,0.670711825
WISKIS,Cc1ccc(Nc2ccc(O)c3c2C(=O)c2ccccc2C3=O)cc1,1.4083,260.279,388.0651027,0.670709626
YEYFIS,Cc1ccc(-c2cc(C(=O)O)cc(-c3ccccn3)n2)cc1,1.3768,234.678,349.9050257,0.670690567
YAXYUT,Cc1cc(=O)oc2n[nH]c(C)c12,1.4406,126.827,189.1126432,0.670642628
IFUDUJ,O=c1oc(/C=C(\O)c2ccccc2)nc2ccccc12,1.4109,209.231,311.9864676,0.670641267
JOLDOF,O=C(N/N=C/c1cccc(O)c1O)c1cccc(C(=O)N/N=C/c2cccc(O)c2O)c1,1.4538,332.552,495.8756682,0.670635849
WIJZOE,Cn1[nH]c(=O)[nH]c1=O,1.5277,83.86,125.0457523,0.670634536
FONMAX,O=Cc1ccc(/N=N/c2ccc(O)cc2)cc1,1.3821,182.161,271.6293049,0.670623518
MOTFOR,O=C1OC(n2ncc3ccccc3c2=O)c2ccccc21,1.4468,214.035,319.1606424,0.670618402
ZZZAWV10,O=C1c2ccccc2C(=O)N1c1ccc2[nH]c3ccccc3c2c1,1.416,245.446,366.0003183,0.670616903
MAQWIM05,CC(C)=NNC(=O)c1ccc(O)cc1,1.3609,157.186,234.3922778,0.67061083
WOTJAS,Cc1ccc(-c2c3c(=O)n(C)c(=O)n(C)c3c3c4cccc5cccc(c54)n23)cc1,1.4053,311.546,464.5706364,0.670610615
ACEZUE,CCOC(=O)/C(C#N)=C1\NC=Nc2ccccc21,1.3977,192.082,286.4319677,0.670602522
YUHTOK,C#CCON1C(=O)c2ccccc2C1=O,1.4022,159.661,238.0910926,0.670587876
LOSNOZ,COc1nc2ccccc2cc1C1C(C#N)=C(N)Oc2c1oc(CO)cc2=O,1.4606,287.495,428.7376448,0.670561598
HEJLUG,O=C(c1ccccc1)c1nc2nc3ccccc3cc2c2ccccc12,1.3781,269.968,402.6007432,0.670560114
TEJNIF,Nc1nc(=O)n(C2CC(O)C(CO)O2)c2c1CCC2,1.4782,201.221,300.0829638,0.670551228
OJUTOF,O=C1CCN(c2cccccc2=O)N1,1.4154,149.533,223.0021635,0.670545064
VITREV,O=C(O)CC(NC(=O)Cc1ccccc1)C(=O)O,1.4309,195.384,291.3847271,0.670536174
UNUNOI,COc1cccc(/C=N/n2cnnc2)c1O,1.4262,170.263,253.9225014,0.670531359
FOLVOU01,O=C(O)c1ccccc1Nc1ccc2ccccc2c1,1.379,212.436,316.8201162,0.670525605
BESSUO,Nc1cccc(NC(=O)c2ccc3ccc4ccc(C(=O)Nc5cccc(N)n5)nc4c3n2)n1,1.4405,347.955,518.9363723,0.670515729
ECIHUW,O=C1c2cccc3cccc(c23)C(=O)N1OCC(O)Cn1c2ccccc2c2ccccc21,1.4367,337.989,504.1121426,0.670463914
YIWLEX,O=C(Cn1cc2ccccc2n1)c1ccco1,1.3971,180.16,268.7129498,0.67045522
TIGMUU,Cc1cc(C)n(-c2nnc(N/N=C/c3ccc(O)cc3)nn2)n1,1.4306,241.353,359.9890341,0.670445422
ALOSAV,O=CNc1ccccc1NC=O,1.3983,130.625,194.8334934,0.670444274
JOWTOG,COC(=O)c1ccc(CN2C(=O)C(=O)c3ccccc32)cc1,1.4237,230.747,344.1857489,0.670414161
WADCUB,COC(=O)Cc1c(O)c2ccccc2n(C)c1=O,1.4292,192.466,287.0895962,0.670403953
IMEDOT,N/C(=N\c1ncccc1O)c1cccnc1,1.4062,169.481,252.8163251,0.670372057
APANIQ,COc1ccccc1Oc1c(O)nc(-c2ncccn2)[nH]c1=O,1.4745,235.617,351.4749207,0.670366465
IMENIN10,COc1c(OC)c2c3c(ncc(OC)c3c1OC)C(=O)c1ccccc1-2,1.4457,270.352,403.3024714,0.670345508
DOLCEN,O=c1oc(-c2ccccc2)nc2ccccc12,1.4039,176.863,263.8499633,0.670316561
GEBXOC,COC(=O)c1cc(C)n(O)c(=O)c1,1.4504,140.485,209.5822351,0.670309675
NABKEJ,COC(=O)Cc1nn2ccccc2nc1=O,1.4555,167.529,249.9335815,0.67029408
GIPMAT,CC(=O)OCCOc1cc(=C(C#N)C#N)ccc1=C(C#N)C#N,1.3597,250.556,373.8093894,0.670277438
MIFWAA,Cc1cc(=O)n2c(Nc3ccccc3)n[nH]c2n1,1.4358,186.899,278.8442788,0.67026299
YUHXAC,O=C(NNC1=CC(=O)c2ccccc2C1=O)c1ccncc1,1.4339,227.496,339.4160796,0.670256991
VAZYUS,Oc1ccc(/N=N/c2c(O)nn3c(-c4ccco4)ccnc23)cc1,1.467,243.609,363.4599357,0.67024994
CAJYES,O=C1C=Cc2ccccc2C12Oc1ccc3ccccc3c1-c1[n-]o[n+](=O)c12,1.4621,280.199,418.0515431,0.670249888
FUQZAU,Cc1cc(O)c(C(=O)/C=C/c2ccc[nH]2)c(=O)o1,1.4299,190.757,284.6081979,0.670244221
XOKFAE,COC(=O)C1NC2(Cc3ccccc3C2=O)C2C(=O)N(C)C(=O)C12,1.4593,250.246,373.3657873,0.670243521
LAQWEH,O=C1C2C3C=CC(O3)C2C(=O)N1CCO,1.4832,156.884,234.0747454,0.670230356
DETFOY,CN1C(=O)/C(=N\NC(=O)c2ccncc2)c2ccccc21,1.4107,220.981,329.7139435,0.670220366
WULRUS,O=C1OC(Nc2cnccn2)c2ccccc21,1.4401,175.485,261.8370756,0.670206843
YULNIC,N#CCCN(CCC#N)C(=O)Nc1ccccc1,1.326,203.211,303.2119859,0.670194482
XEJYAN,Oc1cnccc1/C=N/n1cncn1,1.4364,146.487,218.5752146,0.670190352
MIVFUV,Cc1nnc(-c2cccnc2)o1,1.4023,127.822,190.7255431,0.670188156
MEBTUK,COC(=O)c1nn(-c2ccc(OC)cc2)c2c1COC2=O,1.4684,218.325,325.7809292,0.670158933
LUMZRF01,Cc1nc2c(=O)[nH]c(=O)n(C3OC(CO)C(O)C3O)c2nc1C,1.52,237.292,354.0868803,0.670151912
DOFMAP,COC(=O)c1cc2c(c(=O)o1)c1ccccc1n2C,1.4445,198.046,295.5267999,0.670145652
HXTHQO,[O-][n+]1cccc2c1CCCC2O,1.4005,131.168,195.7373451,0.670122505
XAXLIU,O=C(N/N=C/c1ccc2cccc(O)c2n1)c1ccccc1,1.3982,231.678,345.731619,0.670109377
LAQQAX,O=C([O-])c1cccnc1[NH+]1CCC(C(=O)O)CC1,1.4477,192.236,286.874594,0.670104652
BAWFAG,CN(C)c1ccc(C(C#N)=C2C(=O)c3ccccc3C2=O)cc1,1.3599,247.206,368.9068603,0.670104101
NCLURC,Cn1c(N)c(C(=O)/C=C/c2ccccc2)c(=O)n(C)c1=O,1.4085,225.25,336.1419194,0.670103867
FIPLUL,COc1cc2c(OC)cc1CCc1c(C#N)c(C#N)c(c(C#N)c1C#N)CC2,1.3634,300.451,448.3733587,0.670091106
DAYHIU,COC(=O)/C([O-])=C(\C(=O)OC)[C@@H]1c2ccccc2C=N[N+]1=C1NCCN1,1.4623,272.519,406.6928068,0.670085616
IXAZIQ,C/C(NCCO)=C1\C(=O)Oc2ccccc2C1=O,1.4328,191.891,286.3682656,0.670084724
XOFROZ,COC1=C(C#N)C(c2ccc(OC)cc2)=C2C(=O)N(C)C(c3ccccc3)=C12,1.3784,298.792,445.9088592,0.67007415
SIZLAO,COc1cccc2c(C#N)c3cccc(OC)c3c(O)c12,1.4009,221.676,330.8273934,0.670065431
GOMCIU,Oc1ccc(-n2cncn2)cc1,1.412,126.919,189.4153181,0.670056685
QURYUZ01,c1coc(Cn2cnnn2)c1,1.4374,116.157,173.3546261,0.670054227
HAWVUW,COC(=O)c1cc(C(=O)OC)c2c(n1)C(=O)C(OC)(OC)c1cc(C(=O)OC)[nH]c1-2,1.4878,312.685,466.6614483,0.670046778
JIQKOK,O=C1Nc2ccccc2/C1=C\c1cc(=O)cco1,1.4247,186.701,278.6412007,0.670040897
NEJFUD,OC1C(O)N(c2ccccn2)CN1c1ccccn1,1.4313,200.65,299.4622012,0.670034479
OFONEE,O=C(Nc1ccccc1/N=N/c1ccccc1NC(=O)c1ccccn1)c1ccccn1,1.4038,334.594,499.373725,0.670027243
KEVPIM,O=C1C=Cc2ccccc2/C1=C/Nc1ccccc1/N=N/c1ccccc1,1.3556,288.201,430.1404333,0.670016064
FOMWAF,N#CC1(C(=O)O)CC1,1.3697,90.193,134.613263,0.670015703
OBINUL,O=c1c2ccccc2c2cnc3cc(-c4ccccc4)cc1n32,1.3929,236.51,353.0011455,0.669997826
MXNSAC20,COc1ccc(NC(=O)/C=N/O)cc1,1.4093,153.211,228.6746736,0.66999549
GITGIA,COc1cccc(/C=N/c2cc(C)on2)c1O,1.4069,183.534,273.9356074,0.669989571
DMANPQ10,CN(C)C1=CC(=O)C(=O)c2ccccc21,1.3693,163.374,243.8558036,0.6699615
GUBYIN,COc1ccc(-c2cnn(-c3cccc4cccc(-n5ncc(-c6ccc(C#N)cc6)n5)c34)n2)cc1,1.3971,373.602,557.6519781,0.669955482
ISNACN11,O=C(/C=N/O)Nc1ccccc1,1.3929,131.035,195.5888246,0.669951365
SEDZUW01,COC(=O)Nc1nc2ccccc2[nH]1,1.4493,146.669,218.9263594,0.669946736
MEXBAU,COc1cc(-c2ncccn2)cc(-c2ncccn2)c1,1.3929,210.937,314.8584283,0.669942364
EHUMEC,N#Cc1ccc2c(c1)OCO2,1.4151,115.587,172.5400229,0.669914134
FOCFUB,Oc1ccccc1/C=N/c1cnccn1,1.3878,159.578,238.2066707,0.669914069
SAPZOB,O=C1OC(=O)C(c2c[nH]c3ccccc23)=C1c1c[nH]c2ccccc12,1.4316,254.941,380.5655252,0.669900406
KIZNIT,O=C1c2ccccc2C(=O)N1CCCc1cn(CCCN2C(=O)c3ccccc3C2=O)nn1,1.426,345.712,516.0662157,0.669898531
HXPHIM,O=C1NC(O)c2ccccc21,1.4298,115.964,173.1071302,0.669897305
DOGTIC,O=C1NCC2CC1CNC2=O,1.4707,116.541,173.9686288,0.669896641
GAGWAP,COC(=O)c1nc(-c2ccccn2)c(-c2ccccn2)nc1C(=O)OC,1.4269,272.941,407.4416982,0.669889708
ISOSAK,COc1ccc2[nH]c(C(=O)O)cc2c1,1.4332,148.295,221.3726755,0.669888457
LUHKUW,Cn1c(-c2ccccc2)c(O)c(=O)c2ccccc21,1.3804,202.336,302.0629821,0.669847059
PYRDON,O/C(=C(/O)c1ccccn1)c1ccccn1,1.3965,170.512,254.5590134,0.669832891
UHINII,CCOC1=C(C)C(=O)c2ccn3c(C)ncc3c2C1=O,1.4011,214.429,320.1261827,0.669826499
VEMBEX,COC(=O)C(=O)c1c2ccccc2c2ccccn12,1.4083,199.884,298.4126302,0.669824196
ETYXUR,C#Cc1cn(C2CC(O)C(CO)O2)c(=O)[nH]c1=O,1.4733,190.305,284.1207605,0.669803219
FELRAS,O=C(O)Cn1nnc(CCc2nnn(CC(=O)O)n2)n1,1.5308,204.957,306.0009151,0.669792115
ZAYTIC,Cn1c(=O)ccn(C2OC(CO)C(O)C2O)c1=O,1.5139,189.612,283.0941675,0.669784198
ZAVGOV,Cc1c(O)c(=O)ccn1-c1cn[nH]c1,1.4348,148.114,221.1388157,0.66977839
IFESUH,Cc1cnc(C(=O)O)cn1,1.4233,107.872,161.0581643,0.669770455
MXZTCE10,Cc1c2n3c(c(C)c(=O)n3c1=O)CC2,1.4288,147.958,220.9107379,0.669763731
FUDWUW,Cc1ccc2nc3c(=O)n(C)c(=O)n(C)c3nc2c1C,1.4282,210.349,314.0648709,0.669762904
ERISIH,Cc1cc(C)c(C#N)c(=O)[nH]1,1.3389,122.99,183.6391953,0.669737197
DIRCAI,NC(=O)CN1CC(O)CC1=O,1.4598,120.425,179.812041,0.669727118
SUXXAK,c1c2c(cc3c1OCO3)N1Cc3cc4c(cc3N(C2)C1)OCO4,1.5071,228.828,341.6789528,0.669716405
COFJAL,COC(=O)c1ccc2nc3n(c(=O)c2c1)C(O)(C(=O)OC)C=C3,1.4737,238.514,356.1546255,0.669692271
ISOCAW,COC1=CC(=O)C23OCC(=O)N2c2cccc4c2C(O)(CCC4)C3C1O,1.49,266.544,398.0104207,0.669691009
QERKUU,O=C(c1ccccc1)c1[nH]c(=O)c2ccccc2c1O,1.4154,208.269,310.9945648,0.669686945
DEFTUD,CN(C)c1nnn(-c2ccccc2)c(=O)n1,1.4117,171.019,255.3731071,0.669682888
ITAZOU,CCOC(=O)c1c(C)c2n(c1C)CC(=O)NC2=O,1.4382,193.38,288.7695382,0.669668973
CACFAO,O=C(N/N=C(/c1ccccn1)N1N=C(c2ccccn2)NN=C1c1ccccn1)c1ccccn1,1.4251,360.643,538.5402417,0.669667691
VICGAP,Cn1c(=O)nc(N)n1C1OC(CO)C(O)C1O,1.5299,178.879,267.1205401,0.669656478
AMIVEY,O=C(O)/C(=N\NC(=O)c1ccncc1)c1ccccc1,1.4097,212.246,316.9712112,0.669606553
ZASXAS,N#CNC(=O)c1ccccc1,1.3385,121.328,181.1933733,0.669605062
SOGVAL,COc1ccc(-c2nnc3c4ccccc4ccn23)cc1,1.3859,220.725,329.634746,0.669604775
XORYEK,Cn1c2c(c(=O)n(C)c1=O)C(=O)c1cccc3cccc(c13)C(=O)N2,1.4648,254.37,379.8822092,0.669602297
QOQRIX,CC(=O)/C=C1\NC(=O)c2ccccc21,1.3727,151.524,226.296615,0.669581381
KUXRAW,Cn1c2ccccc2c(=O)c2c1c(=O)c1ccccc1n2C,1.4114,228.536,341.3272206,0.669551053
ABULIT01,COc1cccc(/C=N/O)c1O,1.4124,131.508,196.4152638,0.669540633
PUHCEB,COc1cc(/C=N/NC(=O)c2ccncc2)ccc1O,1.4072,214.194,319.9129512,0.669538383
QOHSAJ01,Cc1n[nH]c(-c2ccccc2N)nc1=O,1.4156,158.721,237.0606926,0.669537401
JUJSOY,O=C(Nc1cccnc1)c1ccc2cc(C(=O)Nc3cccnc3)ccc2c1,1.3966,293.065,437.7146192,0.669534412
NODGUI,N#CC1C(=O)N2C(=N)C1(C#N)C/C=C1/C3CCCC2C13,1.3912,212.675,317.6491472,0.669528006
ROYHAQ,CC1=NN(c2ccccc2)C(=O)/C1=C\c1c[nH]c2ccccc12,1.3893,240.977,359.9239783,0.66952194
UNAFUM,COc1ccc(C(=O)Cn2c(=O)cc(C#N)c3ccc4cccnc4c32)cc1,1.4069,291.686,435.6715427,0.669508957
BUGRAZ,O=C(O)c1ccccc1NCn1cccn1,1.4039,171.913,256.7786604,0.669498781
SEMLEE,O/N=N/c1nnnn1CCn1cccn1,1.4809,156.214,233.3318567,0.669492808
RABQUC,COC12C(=O)N(C)C(=O)N1C(=O)NC(=O)N2C,1.5446,174.229,260.2442945,0.669482497
TECPAV,CC1(O)n2ncnc2NC(c2ccccc2O)C12CCOC2=O,1.4833,236.93,353.9028838,0.669477449
KASKUL01,O=C(CCC(=O)Nc1ccccc1)Nc1ccccc1,1.3684,217.829,325.3741798,0.669472298
HUVXIH,COC(=O)c1c(C#N)c(=O)[nH]c2[nH]nc(-c3ccccc3)c12,1.4406,226.94,338.9847472,0.66946965
CIXBUG,O=C1/C(=C/Nc2ccccc2)Oc2ccccc21,1.3792,191.099,285.4505162,0.669464545
SIKDOH,O=C1c2ccc3c4c(ccc(c24)C(=O)N1C1CCC1)C(=O)N(C1CCC1)C3=O,1.4452,287.786,429.8884077,0.6694435
OLECEP,C/C(=N\Nc1ccccc1)c1c(O)cc(C)oc1=O,1.409,203.635,304.1884986,0.669436882
VUYYUL,O=C1CN(/N=C/c2ccccc2O)C(=O)N1,1.4631,166.437,248.6353139,0.669402095
QEQMUU,Cc1cc(=O)n2cccc(O)c2n1,1.4338,136.495,203.9077094,0.669395975
HEFKAE,C1=CC2OC2c2cc3ccccc3nc21,1.3704,158.229,236.3766842,0.669393432
REGHER,Cc1cn(C2CCC3(CO)C(CO)C23)c(=O)[nH]c1=O,1.4299,206.884,309.0635197,0.669389905
QANKAT,c1ccc2c(c1)Cn1nnc3c1-c1c(cccc1-2)OC3,1.433,202.526,302.5585526,0.669377871
NADBIE,O=Cc1cc(C(=O)c2ccccc2)n2ccc3ccccc3c12,1.3791,241.067,360.145414,0.669360183
REFZIM,NC(=O)c1ccc[nH]1,1.3937,87.768,131.1227166,0.6693577
ECITOA,CCOc1ccccc1NC(=O)C1=Cc2ccccc2/C(=N/Nc2ccc(C(N)=O)cc2C)C1=O,1.4006,371.549,555.0901768,0.669348901
CEGJAB,CC(=O)c1c[nH]c(C=O)c1,1.3785,110.505,165.0934892,0.669348019
PAWLEH,COC(=O)C1=C(C)OC23OC(N)=C(C(=O)OC)C12c1cccc2cccc3c12,1.4828,284.173,424.5634867,0.669329815
ZILQEQ,O=C1N2CCN1CCN1CCN(CC2)C1=O,1.4667,169.841,253.7573036,0.669304874
KOMFUN,Cn1c(=O)c2c(n/c(=N\c3ccccc3)n3ccccc23)n(C)c1=O,1.4372,257.616,384.903526,0.669300182
DUJGIZ,Cc1oncc1C(=O)O,1.4645,96.401,144.0361499,0.669283371
YOHROF,COc1c(Nc2ccc3ccccc3c2)c(=O)c1=O,1.3958,201.51,301.0850459,0.669279337
ISEJAS,CNC(=O)/C=C/c1ccc(O)c(O)c1,1.3896,154.419,230.7271928,0.669270918
HOFJAO,O=C1c2ccccc2C(=O)N1Cn1ccnc1,1.4283,176.681,264.0002609,0.669245551
UJOTES03,Oc1ccc2ccccc2c1/C=N/N=C/c1c(O)ccc2ccccc12,1.3753,274.843,410.677836,0.66924235
DUCZOR,COc1ccc(C(=O)N/N=C/c2ccc(OC)cc2O)cc1,1.4052,237.343,354.657229,0.669217996
EVALIY,CC1=C/C(=N\c2ccc(N)cc2)C(N)=CC1=O,1.3639,185.045,276.5100041,0.669216293
KOKPOP,COc1nc(N)nc2c1ncn2C1CC(O)C(CO)O1,1.5054,207.519,310.0938341,0.669213564
BISRIE,O=c1n(-c2ccccc2)c(=O)n2n1C1C=CC2C2CC21,1.4389,206.281,308.2546041,0.669190329
HAVJUJ,Nc1ccc(C2=NNC(=O)CC2)cc1,1.3938,150.753,225.285698,0.66916365
TUMMEW,O=c1c2ccccc2nc2c3ccccc3cc(-c3ccccc3)n12,1.3864,258.174,385.8171408,0.66916156
BEWKUM01,C=C1C(CO)C(O)CC1n1cnc2c(=O)[nH]c(N)nc21,1.4757,208.663,311.8393323,0.669136245
WINRIU,COc1cccc2c1-c1nc3ccccc3cc1C2=O,1.3921,208.392,311.4343452,0.669136218
MAWQIL,COC(=O)c1c(C(=O)OC)c2ccc(/C=C/c3ccc4ccccc4c3)nn2c1C(=O)OC,1.4174,348.174,520.3371141,0.669131589
BOLJER,O=c1[nH]n(C2CC3C=CC2n2c(=O)n(-c4ccccc4)c(=O)n23)c(=O)n1-c1ccccc1,1.4677,325.638,486.672171,0.66911161
ACSLCB10,CC(=O)NC(=O)c1ccccc1O,1.4084,141.263,211.1219245,0.669106254
WOBXUG,COc1ccc2cc(/N=C/c3ccccc3O)c(=O)oc2c1,1.4241,230.232,344.0890744,0.669105813
CEDZIX,O=C(N/N=C/c1ccc(O)cc1)c1ccco1,1.4157,180.57,269.8684873,0.669103687
IXAPOM01,CC(=O)c1ccc(N/C=C2\C(=O)C=Cc3ccccc32)cc1,1.3589,236.392,353.2979093,0.669101044
ZISBOV,N#Cc1cc2c(cc1C#N)OCCOCCO2,1.4015,182.398,272.6027953,0.669098055
FUFDEP,COc1c(OC)c2c3c(nccc3c1OC(C)=O)C(=O)c1ccccc1-2,1.4414,269.081,402.1834289,0.66905044
ZUHHOZ,CCC(=O)Nc1ccc(C(=O)OO)cc1,1.4177,163.842,244.8893716,0.66904496
UXICAH,O=C1Nc2ccccc2C1(O)c1ccccc1,1.3937,179.423,268.1826447,0.669032853
FORNUX,O=c1c(-c2ccccc2)ccc2ccccn12,1.356,181.135,270.7464577,0.669020757
QIMDEV,COc1cccc2c1oc(=O)c1c(O)cc(C)nc12,1.4505,196.883,294.3043518,0.668977536
JAGRIV,CC1=NN(c2ccccc2)C(=O)/C1=N\Nc1ccccc1C(=O)O,1.4214,251.74,376.3122301,0.668965768
KUJHUS,COC1=CC(=O)C=C(OC)C12C(=O)c1ccccc1N2O,1.4455,220.62,329.7986898,0.668953537
DBINDB,COC1(C2(OC)Nc3ccccc3C2=O)Nc2ccccc2C1=O,1.4336,251.138,375.4315975,0.668931442
ZIJFEF,c1ccc2c(c1)oc1nccnc1oc1ccccc12,1.4246,204.346,305.4895847,0.668913149
IXOXID,O=C(/C=C(\O)c1cccnc1)c1ccccc1,1.36,183.831,274.8280529,0.668894598
OSICIE,O=C(OCN1C(=O)c2ccccc2C1=O)c1ccccc1,1.4242,219.212,327.7228355,0.668894493
UFAMOE,O=C1C=C(NCc2cccnc2)C(=O)c2ccccc21,1.3905,210.953,315.388458,0.668867217
VUKQUP,NC(=O)N/N=C1\C(=O)c2ccccc2-c2ccccc21,1.4204,207.289,309.912955,0.668862004
PAXROX,Cc1cc(C#N)cc2c(=O)n(C)cnc12,1.3696,161.439,241.3720922,0.668838715
MUDKIH,COc1cccc(/C=N/NC(=O)c2c[nH]cn2)c1O,1.4312,201.84,301.7796362,0.668832405