name,smiles,Density,Vint,Veff,pc
XEGSAG,CN(C)c1ccc(/C=C2\CC/C(=C\c3ccc(C#N)cc3)C2=O)cc1,1.2571,276.813,433.4885447,0.638570508
XEPVAR,CC(=O)c1cc(/N=N/c2ccc(C)c(C)c2)ccc1O,1.2887,220.624,345.497034,0.638569881
ALIKIS,COC(=O)c1ccc(-c2cccc3[nH]cc(C(C)=O)c23)cc1,1.3241,234.73,367.5934476,0.638558716
HICWOG,Cc1ccc2c(c1)C(=O)C(C#N)=C2c1ccccc1,1.2696,204.697,320.5628517,0.638554963
AZUDAB,COc1ccc(NC(=O)NCC(O)c2ccccc2)cc1,1.3202,229.819,359.9078711,0.638549525
DIQVAA,O=C(NNCC(O)C(O)C(O)CO)c1ccccc1,1.3667,209.578,328.2094695,0.638549522
GOWJUZ,CCOC(=O)/C(=C/Nc1ccccc1)C(=O)O,1.3404,185.972,291.2423536,0.638547236
UKATAE,CCCOc1ccccc1/C=N/NC(=O)c1ccc(OC)cc1,1.2984,254.921,399.2236291,0.638541863
ADENED,COc1cc(C(C)=O)ccc1Oc1ccc(C#N)c(C#N)c1,1.2997,238.289,373.190741,0.638517985
DEBGUN,O=C(NCCCCCCCCNC(=O)c1cccnc1)c1cccnc1,1.2882,291.547,456.6012883,0.6385155
EFARUB,O=c1cccc(C#CCc2ccccc2)[nH]1,1.2619,175.684,275.1446205,0.638515119
PUGYEW,COc1ccccc1C1C(C(C)=O)=C(C)NC(C)=C1C(C)=O,1.2861,246.634,386.2623821,0.638514159
YATCON,COC(=O)C1=C(C(=O)OC)N2C=Cc3ccccc3C2OC1c1coc2ccccc2c1=O,1.3958,338.13,529.5600243,0.638511188
HAHCOJ,O=C(Nc1ccc(-c2ccccc2)cc1)Nc1ccc(-c2ccccc2)cc1,1.2824,301.087,471.5533762,0.638500359
OKEZEM,COc1ccc2c(c1)C1C(C(=O)c3ccccc3)(C(=O)O2)C12C(=O)N(C)c1ccccc12,1.3566,332.27,520.3927256,0.638498549
ILIWOR,O=C1C=C(c2ccc(N(Cc3ccccc3)Cc3ccccc3)cc2)C(=O)c2c(O)cccc21,1.3045,361.827,566.6888755,0.638493211
HUYCEK,CC(C)(O)/C(=C/C#N)n1cnc2c(N)ncnc21,1.343,192.719,301.8350813,0.638491056
TEMKIH,COC(=O)c1cc(=O)n(-c2ccccc2)cc1C(=O)c1ccccc1,1.3326,265.029,415.0878278,0.638488971
WOLDOS,CC(=O)C1=C(C)NC(C)=C(C(C)=O)C1C(=O)O,1.3385,187.813,294.1564731,0.638479915
DOSCUJ,COC(=O)/C=C1\NC(C(=O)OCc2ccccc2)N2C(=O)CC12,1.3703,244.582,383.0734098,0.638472924
COZPEO,COc1ccc2c(c1)c(C(=O)c1ccccc1)n1ccccc21,1.314,242.961,380.5355624,0.638471208
ROGDAT,C(=N/N=C/c1ccco1)\c1ccco1,1.3305,149.859,234.7163275,0.638468579
DADDAN,O=C1CCC(=O)OC2CCN3CC=C(CO1)C23,1.3888,181.006,283.5026204,0.638463234
DMXCYT,Cc1cn(C)c(=O)[nH]/c1=N\O,1.3751,119.561,187.2651973,0.638458196
QUCDAW,O=C(Oc1ccc(-n2cccn2)c2ccccc12)c1ccccc1,1.3215,252.001,394.705743,0.638452834
SIKTIS,O=C(N/N=C/c1c2ccccc2cc2ccccc12)c1ccncc1,1.307,263.732,413.0809357,0.638451154
SICQOK,COC(=O)c1ccc(N)c(OC)c1,1.3348,143.824,225.2706826,0.638449701
SOYVEI,O=C(CCCCC(=O)Nc1cccc2cccnc12)Nc1cccc2cccnc12,1.3213,319.493,500.4224648,0.638446558
COLBAJ,CCc1c(-c2cc3c(ccc4ccccc43)oc2=O)nc2c(c(C)nn2-c2ccccc2)c1C,1.321,357.289,559.624748,0.638443888
HOLXUE,N#CC1(C#N)C(C(=O)c2ccccc2)C1c1ccc2c(c1)OCCO2,1.3255,264.028,413.553221,0.638437779
GOKFIX,COc1cccc(C(=O)c2cc3cc(OC)ccc3[nH]2)c1,1.3226,225.329,352.9436595,0.638427675
WIYREC,O=C(/C=C/c1ccc(N(c2ccccc2)c2ccccc2)cc1)c1cc2c(ccc3ccccc32)oc1=O,1.3079,399.757,626.1598272,0.638426457
NUCVEO,COc1ccccc1NC(=O)CCC(=O)O,1.3469,175.594,275.0419858,0.638426164
KEQFOC,COc1ccc(/C(C#N)=C/c2ccccc2)cc1,1.2455,200.116,313.4537014,0.638422833
HUQVUN,OC12C/C(=C\c3ccc4c(c3)c3ccccc3n4-c3ccccc3)C1Oc1ccccc12,1.3161,334.422,523.8280482,0.638419422
JAYBAM,CC(=O)N1Cc2ccccc21,1.2765,122.143,191.3214321,0.638417759
WINWIZ,COC12C=CC(CC1)C(C#N)(C#N)C2(C#N)C#N,1.2929,195.225,305.7968261,0.638414082
BUDWAZ,Cc1ccc(/C=N/NC=O)o1,1.3251,121.654,190.5580513,0.638409131
YADDUC,COC(=O)c1cc(OC)c2c(C(=O)c3ccc(OC)cc3)ccc(OC)c2n1,1.357,297.747,466.3890395,0.638409085
HPRIND,COC1CN2C(=O)c3ccccc3C2(O)C1c1ccccc1,1.3337,234.588,367.4572037,0.638409038
MOCTII,CNC(=O)N(Cc1ccccc1)c1c2ccccc2n2c(=O)n(C)c3ccccc3c12,1.3362,325.431,509.7555775,0.638405962
YAFVAE,CCOC(=O)/C(C#N)=C/c1ccc(OC)cc1OC,1.306,211.946,331.9929857,0.638405054
QUPXUX,O=C1C(c2ccncc2)=C(c2ccccc2)c2ccccc21,1.2878,233.05,365.0531022,0.638400273
VEFLIC,Cc1ccc(C2CN(C)C3(C(=O)Nc4ccccc43)C23C(=O)c2ccccc2C3=O)cc1,1.3345,335.364,525.3233034,0.638395437
JOCLIY,O=Cc1ccc2n1CC1(CC(O)C(O)CO1)OC2,1.4211,188.804,295.749486,0.638391642
UMUHIW,O=C1OCCN1/C(=C\c1ccccc1)N(c1ccccc1)c1ncccn1,1.3301,285.445,447.1334679,0.638388804
WAXKEO,CCOC(=O)C1=NN(c2ccccc2)C(=O)C12C(c1ccccc1)C2(C#N)C#N,1.3221,308.003,482.4698528,0.638388074
HOPMEG,O=C1C=CC2(CCN(Cc3ccccc3)C(=O)C2)c2ccccc21,1.3062,257.39,403.1888729,0.638385673
AFEQOS,O=C(O)c1cc(-c2ccccc2)[nH]n1,1.3485,147.839,231.5832954,0.638383696
EHOPAS02,O=C1C=Cc2ccccc2/C1=C/NC(CO)(CO)CO,1.3418,217.357,340.4808673,0.63838242
ZOPZOV,CCOC(=O)C1=C(C)Nc2nnnn2C1c1ccccn1,1.3812,219.599,343.9959875,0.638376632
MISCIB,Cc1nn(-c2ccccc2)c2c1C1(C(=O)Nc3ccccc31)C(C#N)=C(N)O2,1.3661,286.434,448.6969824,0.638368456
JAGCAY,COc1ccc(C(=O)/C=C/c2ccc(-n3cnc4ccccc43)cc2)cc1,1.2978,289.267,453.1357808,0.638367157
ETUWAU,COc1ccc(Nc2ncnc3c2cnn3-c2ccccc2)cc1,1.3419,250.52,392.445184,0.638356668
TUJVIG,COc1ccccc1OCC1CNC(=O)O1,1.3712,172.463,270.1677733,0.638355189
FURSIW,CCOC(=O)c1ncn(-c2ccccc2)c1-n1c(-c2ccccc2)cc2ccccc21,1.3161,327.944,513.7417398,0.638344083
UREAXX39,NC(N)=O,1.3667,46.562,72.94193428,0.638343368
QOCHEY,C/C(=N\NC(=O)c1nnn(-c2ccccc2)c1C)c1ccccc1O,1.3337,266.361,417.2831491,0.638321966
XAYVEY,COC(=O)c1cc2c3ccccc3n(C)c2c2cc(C)c(OC)cc12,1.3231,266.891,418.1138698,0.638321327
DOFROI,CCOC(=O)c1cc2c(c(=O)o1)c1ccccc1n2C,1.3672,210.169,329.2589606,0.638309128
WUFVIF,COc1ccc(CNC2=CC(=O)C(NCc3ccc(OC)cc3)=CC2=O)cc1,1.3218,303.249,475.0863244,0.638302945
TOHKIK,Cc1ccc(Nc2ccc3c(c2)OCO3)cc1,1.3232,181.916,285.001013,0.638299486
EDIPOY,CC1=C2C=C(c3ccccc3)O[C@@]2(C)[C@@H](c2ccccc2)C2=C1C(=C(C#N)C#N)OC2=O,1.309,338.581,530.442759,0.638298844
GIKSAV,O/N=C(\c1ccccc1)c1ccccc1O,1.3067,172.842,270.7882083,0.638292195
EVOTIS,CC(=O)Oc1ccc(N2C(=O)C3C4C=CC(O4)C3C2=O)cc1,1.4004,226.37,354.6495331,0.638292114
UNUPAV,CN1C(=O)C(C(=O)c2ccccc2)C(=O)N(C)c2ccccc21,1.3309,245.387,384.4447991,0.638289296
FASTAW,Cc1ccc(Oc2nc3ccccc3cc2C=O)cc1,1.3082,213.167,333.9664733,0.638288622
DASBAB,[NH3+]C1CCCC1C(=O)[O-],1.3267,103.125,161.5652008,0.638287202
WOFZEZ,COc1ccc(/C=N/N=C/c2c(O)ccc3ccccc23)cc1,1.3033,247.333,387.4960699,0.638285183
FOXQUE,c1cc2[nH]cc3c2c2c1OCCC2OCC3,1.377,165.567,259.3944375,0.63828277
GIPSAB,COC(=O)/C(=C/c1cccc2ccccc12)COc1nc(C)nc2ccccc12,1.3166,309.258,484.5170591,0.638280932
JAKGEH,CC(=O)CCCCn1c(=O)c2c(ncn2C)n(C)c1=O,1.3477,218.747,342.7140913,0.638278395
RAMZIP,COC(=O)N1C=CN(C(=O)OC)C2C1OC(=O)C21CCCCC1,1.4066,244.243,382.6630354,0.638271736
HORDEX,COc1ccc(-c2nc(NCc3cccnc3)n3nc(C)cc(C)c23)cc1,1.3119,290.185,454.6423948,0.638270877
JIPDEU,Cc1ccc(-c2cc3c4ccccc4c4noc(=O)n4c3c3ccc(C)cc23)cc1,1.3308,310.723,486.8208718,0.638269676
EMUGEA,CN(C)c1ccc(C#Cc2ccc3cc(C=O)c(=O)oc3c2)cc1,1.3034,257.866,404.0086575,0.638268501
QIYNAQ,CCOC(=O)C1=C(N)Oc2cc(C)oc(=O)c2C1c1ccc(O)c(OC)c1,1.3936,283.775,444.6015226,0.638268169
OMEPOM,CC(C)(C)OC(=O)N1CCC(=O)OC1=O,1.3906,163.932,256.8393543,0.638266673
AGOGEL,COn1c(=O)c2ccccc2c2cc(C)ccc21,1.3175,192.347,301.3590439,0.638265232
MUZSIL,Cc1ccc(C2C(C(=O)c3ccccc3)C2(C#N)C#N)cc1,1.2524,242.134,379.3638486,0.638263242
DUNDAU,CCc1ccc(/C(C#N)=C2\Nc3ccccc3C2=O)cc1,1.2792,227.117,355.8380894,0.638259385
BEVLOD,CC12CC3(CC(=O)O3)C1C(=O)NC(=O)N2,1.4308,155.608,243.8023293,0.638254772
KUPHIM02,CN(C)c1ccc(C=O)c2c(C=O)ccc(N(C)C)c12,1.2922,221.571,347.1515371,0.638254411
SEQWIV,CCOC(=O)/C=C\NC(=O)c1ccccc1,1.2968,179.062,280.552202,0.638248421
GUFKUN,CC(=O)/C(C#N)=N/Nc1ccc(C#N)cc1,1.286,174.78,273.8438008,0.638247057
HACHEA,c1cc2c3c(c1)C1CC(Oc4c1ccc1cnccc41)N3CCCO2,1.3692,255.55,400.3982006,0.638239631
FUXBIJ,COCc1cn(C2CC(OC(C)=O)C(CO)O2)c(=O)[nH]c1=O,1.4149,235.291,368.6574262,0.638237516
PURBOC10,O=C(Nc1ccccc1)OC1CCC2C(OC(=O)Nc3ccccc3)CCC12,1.3366,301.454,472.3300105,0.638227496
UWOJEX,O=C1c2cccc3c2C(=O)c2cccc(c21)NCCOCCOCCOCCN3,1.3642,307.781,482.2441338,0.63822653
REYFOT,CCOC(=O)Cn1cc(-c2cc(-c3cn(CC(=O)OCC)nn3)cc(-c3cn(CC(=O)OCC)nn3)c2)nn1,1.3756,413.894,648.5085186,0.638224461
HIHBIM,Cc1ccc(C(=O)/C=C(/c2ccccc2)N(C(=O)c2ccccc2)c2ccccc2)cc1,1.2713,347.781,544.920383,0.638223511
QEGREC,CC(=O)c1cc2[nH]ccc2cc1C,1.2798,143.335,224.58462,0.638222689
IPUQIV,CC(C)(C)OC(=O)n1cc(C2Cc3oc4ccccc4c(=O)c3CO2)c2ccccc21,1.3532,326.719,511.9213335,0.638221107
NOKLEF,COc1ccc2cc(C)c3c(c2c1)c1ccccc1n3C,1.2986,224.54,351.8270154,0.638211366
GIFPAO,O=C(O)c1cn(CCO)c2ccc(Cc3ccccc3)cc2c1=O,1.3413,255.302,400.0343158,0.638200249
JEXQUB,COC(=O)CN1CC2(O)c3ccccc3C(=O)N2CC1=O,1.403,219.127,343.3527476,0.638197893
WEPBAV,Cc1nn(-c2ccccc2)c(=O)[nH]1,1.3361,138.868,217.5951032,0.638194509
OCAQEP,COC(=O)c1cc2ccccc2[nH]1,1.329,139.6,218.743539,0.638190278
NAHKEP,CCOC(=O)C1=C(C)NC(=O)NC1c1ccc(C(=O)OC)cc1,1.3619,247.548,387.8938849,0.638184848
MUTFIQ,COc1ccc(OC)c2c1CN1C(=O)N3COCN4C(=O)N(C2)C1(c1ccccc1)C34c1ccccc1,1.3906,379.667,594.919348,0.638182304
PAMMOI,COc1ccc(C(=O)Nc2ccc(NC(=O)c3ccc(OC)cc3)c(OC(C)=O)c2)cc1,1.3492,341.012,534.3505886,0.638180265
FUDYEI,O=C(c1ccccc1)N1CCOCCN1C(=O)c1ccccc1,1.3237,248.293,389.0645702,0.638179416
UFUYIE,O=C1N(c2cccc3ccccc23)CCN1c1cccc2ccccc12,1.3063,274.324,429.8541384,0.638179269
VIBCIU,Cc1cc(=O)n(CCO)[nH]1,1.3415,112.236,175.8691483,0.638179016
YISNAP,C=CCOc1ccccc1-c1nc2c(c3nc(C)nn13)Cc1ccccc1O2,1.3434,291.99,457.5401412,0.638173515
KEWLUW,CCOC(=O)n1c(=O)n(C)c2ccccc21,1.3613,171.331,268.4733754,0.638167564
OJUXEZ,Cc1nc(-c2ccccc2)c(C=O)c2ccccc12,1.2784,204.834,320.9744877,0.638162869
LUVNOF,O=C(NNc1ccccc1)c1ccccn1,1.3096,172.433,270.2028146,0.638161376
DEVVUV,COc1ccc(NC(=O)Nc2cc(OC)ccc2O)cc1,1.3542,225.461,353.2987286,0.63815967
JIQQOP,CC1=NN(c2ccccc2)C2(c3ccccc3C(=O)N2C)C1O,1.3336,244.058,382.4411568,0.638158304
HODRAW,COc1ccc(CNC(=O)COc2cc(=O)oc3ccccc23)c(OC)c1,1.3656,286.441,448.8596416,0.638152717
NUHVAO,CCOC(=O)C(C)Nc1nc2ccccc2c(=O)n1-c1ccccc1,1.3332,267.982,419.9362964,0.638149172
UPOBOS,NN1C(=O)OC2OC(c3ccccc3)CC21,1.3891,167.897,263.1004291,0.638147952
AVUZOH,CCCc1nn(C)c(C(N)=O)c1/N=C/c1ccc(O)cc1,1.3188,229.925,360.3040838,0.638141532
RIWTUM,O=C1c2ccccc2C2CC(O)c3cccn3N12,1.368,185.981,291.4424348,0.638139742
YIZCOC,CN(C)c1ccc(/C=C/C2=CC(=C(C#N)C#N)c3ccccc3O2)cc1,1.2734,282.219,442.2578699,0.638132228
DAYMAU,COc1ccc(-c2cc(-c3ccccc3)c3c(n2)c(=O)oc2ccccc23)cc1,1.3372,300.429,470.8107034,0.638109962
JIBJUC,COc1cc2c(cc1O)C13c4ccccc4N(C(=O)OCc4ccccc4)C1OC(c1ccccc1)(O2)C3O,1.3856,400.088,626.9952709,0.638103696
DIJHAI,CCc1ccc(/N=N/c2ccc(O)c(/C=N/c3ccc(C)cc3)c2)cc1,1.2776,284.622,446.0437919,0.638103265
IVOGEF,Cn1cccc(COc2ccccc2)c1=O,1.2909,176.56,276.6954376,0.638102318
EQOGEW,O=C1CCN2OCC1C21C2C=CCC1c1ccccc1C2,1.3406,222.218,348.2498178,0.6380994
REKMAY,COc1ccccc1N/C(=N/C(=O)c1ccccc1)c1ccccc1,1.2942,270.298,423.6016197,0.638094822
UPESIU,COc1ccccc1C1(C(=O)C2(c3ccccc3OC)CCN(C)C2=O)CCN(C)C1=O,1.3339,346.506,543.0342788,0.638092315
SOMWUP,CCOC(=O)C1=Nc2cc(OC)ccc2C(O)N1c1ccccc1,1.3473,256.49,401.9638735,0.638092169
KEKVAY,Oc1ccccc1-c1cccnc1,1.2826,141.327,221.4846469,0.638089375
NUPQEW,COc1ccc(-n2nc(C(N)=O)c3c2C(=O)N(c2ccc(N4CCCCC4=O)cc2)CC3)cc1,1.3698,355.206,556.6739674,0.638086242
NAXBEV,c1ccc(CN2COc3ccc4ccc5ccc6ccccc6c5c4c3C2)cc1,1.3035,304.964,477.9398075,0.638080351
SUVFIA,COC(=O)C1=C(O)C2CN(CCc3c2[nH]c2ccccc32)C1,1.3675,231.003,362.0311309,0.638074962
MUCNUW,CCOC(=O)c1c(C)cn2c(cc3ccccc32)c1N,1.3251,214.397,336.0063601,0.638074231
FITSAE,O=C1C=Cc2ccccc2/C1=C/Nc1ccc(O)cc1,1.3151,211.976,332.2142349,0.63807019
XIZCEP01,O=C(NCc1ccccc1)c1ccccc1O,1.3081,183.949,288.2909107,0.638067289
KANQIZ,CCOC(=O)C1=C(c2ccccc2)NC(C(=O)OC)CC1=O,1.3537,237.251,371.8294917,0.638063965
DIHMAJ,CCOC(=O)C1(C#N)Cc2ccccc2C1CC(=O)c1ccccc1,1.2949,272.591,427.2194464,0.638058502
PAWCUN,N#CCC(=O)N/N=C1\CCCc2ccccc21,1.2951,185.801,291.199131,0.638054789
MCRZMA,C[N+](=O)[N-]COC1OC(COC2OCC(O)C(O)C2O)C(O)C(O)C1O,1.4737,276.185,432.8557906,0.638053148
HEXLAA,Cc1cc(C(=O)/C=C(\O)c2ccco2)nn1C,1.3414,183.32,287.3117683,0.638052528
UGOFAA,Cc1ccc(/C=N/NC(=O)CC#N)cc1,1.2697,167.806,262.9994535,0.638046953
ANCBGL,O=C(CCC1NC(=O)OC1=O)OCc1ccccc1,1.3767,202.47,317.3310132,0.638040379
BEHNEK,CCN(CC)c1ccc2cc(/C=N/c3cc(C(=O)OC)cc(C(=O)OC)c3)c(=O)oc2c1,1.3344,346.319,542.7855236,0.638040229
NUPKIT,O=C1OCCCc2cc3ccccc3n2C(=O)OCCCc2cc3ccccc3n21,1.3506,315.487,494.4643148,0.638037954
FARZOP,COC(=O)c1ccc(/N=N/Nc2ccc(C(=O)OC)c(OC)c2)cc1OC,1.3682,288.947,452.8689783,0.638036637
GIHNUJ,CO/N=C1\OCc2cccc(OC)c21,1.3455,152.037,238.2894887,0.638034858
XITCIM,CCOC(=O)CCc1nnc2n(c1=O)NC(=O)CC2(C)C,1.3798,225.858,353.9911118,0.638032969
MAHJOY,CCOC1=NC(C(=O)c2ccc(OC)cc2)=Cc2cccn2C1,1.3192,249.081,390.391731,0.638028371
TUJTEA,CCN(CC)c1ccc(/C=N/c2ccc3c(c2)C(=O)OC3)c(O)c1,1.3175,260.668,408.5610323,0.638014836
INEPAS,CC(=O)N(C(C)=O)N1C(=O)C2C3c4ccccc4C(c4ccccc43)C2C1=O,1.3686,289.625,453.9490915,0.638012071
BOGHIQ,COC(=O)C1=C(C)NC(C)=C(C(=O)OC)C1c1cc(=O)oc2cc(OC)ccc12,1.3701,308.643,483.759047,0.638009773
EVENEZ,CCn1c(-c2ccncc2)nc2ccc(Oc3ccc(OC)cc3)nc21,1.3333,275.055,431.1145471,0.63800909
NIBFIN,c1ccc(Oc2ccc(-c3cc[nH]n3)cc2)cc1,1.3017,192.162,301.1902094,0.638008787
ZOBQEO,CCC1(C#N)CCC(=O)N2CCc3c([nH]c4ccccc34)C21,1.3171,235.811,369.6071368,0.638004455
COSVEL,CC12C(=O)NC(=O)N3CCCCOc4c5c(cc6occc46)OC(=O)C1C5C32,1.4369,281.742,441.6052871,0.637995079
LAVWEL02,COc1cccc(/C=N/c2c(C)n(C)n(-c3ccccc3)c2=O)c1O,1.3257,269.43,422.3120393,0.637987969
LEFCOP,Cn1c(=O)c2c(nc(-c3ccccc3)n2C)n(CC(O)COc2ccccc2)c1=O,1.3617,316.007,495.3191695,0.637986614
HUYGEP,COc1ccc(/C(C#N)=C/C=C/c2ccccc2)cc1,1.2343,224.123,351.2988524,0.637983866
LUPLAM,COc1cc(C(=O)OC2CC3C(O)C(OC(=O)c4ccccc4)C(C2)N3C)cc(OC)c1O,1.3818,350.517,549.4156833,0.637981424
PHBARB,CCC1(c2ccccc2)C(=O)NC(=O)NC1=O,1.3582,181.031,283.7579193,0.637976908
QOZKIC,C(=C/c1nc2ccccc2o1)\c1cccnc1,1.3117,179.366,281.1503447,0.63797183
BANVUJ,CC1=CCc2ccc3c4c(cn3C)C(C)(C)C3C=C1C(C=O)(C3=O)c24,1.3283,264.122,414.0026307,0.637971792
AJEREN,Cc1ccc(C)c(NCC(=O)N2CC(=O)Nc3ccccc32)c1,1.3233,247.498,387.9473401,0.637968029
FUXSUN,COC(=O)C1=NC2(C)C(c3ccccc3)=NN(C(C)=O)C2(O)C1C(=O)OC,1.3766,287.149,450.105576,0.637959215
NOVVOJ,CCOC(=O)/C(C#N)=C/c1ccc(OC)c(OC)c1,1.3055,211.879,332.1201373,0.637958908
NELVEF,CCOc1ccc(Nc2cc(=O)[nH]c3ccccc23)cc1,1.3191,224.97,352.6413675,0.637956918
GEQWOR,COC12C=CC34C(C1)C(O)c1ccccc1N3C(=O)C(=O)N4C2c1ccccc1,1.3778,298.438,467.8103608,0.637946538
BIDBOF,CC1(C)C2C(=O)N3C(c4ccccc4)OCC3C21,1.2883,199.923,313.3857931,0.63794532
UMOWOL,O=c1c(-c2ccccc2)[n+](-c2ccccc2)[n-]c2ccccc12,1.3038,242.222,379.6920418,0.637943316
TADQOG,CN1CCc2c(-c3ccccc3)nnn2-c2ccccc2C1=O,1.3263,242.922,380.7903808,0.637941535
OLUPAO,COc1cccc2c1/C(=N/O)CCC2,1.3127,154.215,241.7397276,0.637938172
SIXWOM,CC(=O)N(C(C)=O)c1cnc2ccccn12,1.3418,171.389,268.6626631,0.637933824
ASIBAF,COC(=O)/C=C1/N=NC(c2ccccc2)(c2ccccc2)C1C(=O)OC,1.3268,279.548,438.2124862,0.637927966
LESHIB,O=C1NC(=O)C2(CN(C(=O)C(O)c3ccccc3)CC2NC(=O)OCc2ccccc2)N1,1.3874,334.548,524.4330571,0.637923173
WOZPEJ,CC1(C)OC2CN3OC4COC(=O)C4C3C2O1,1.4421,177.103,277.6245714,0.637922642
BUGBAJ,COC(=O)/C=C/c1c(C(=O)OC)c2n(c1C(=O)c1ccccc1C(=O)OC)CCC2,1.3564,321.086,503.3363834,0.63791534
PEQDUM,C/C(=C(/N)c1ccccc1)c1nc(-c2ccccc2)c(C)c(=O)o1,1.2995,259.336,406.5394507,0.637911031
GIQNUQ,C/C(=N/NC(=O)c1ccccc1N)c1ccccn1,1.3121,205.158,321.6113813,0.637906529
DIJVOI,O=C1OC/C(=C\c2ccccc2)N1c1ccccc1,1.3065,203.587,319.1486723,0.637906461
SIBJIW,COC(=O)c1c(C)cc(O)c2c1CN(N(C)C)C2=O,1.3604,205.656,322.3924862,0.637905686
MURHEN,CN1C(=O)C(CC2(Cc3ccc(N(C)C)cc3)C(=O)N(C)C(=O)N(C)C2=O)C(=O)N(C)C1=O,1.371,353.251,553.7708967,0.637900984
PASNIH,COc1ccc2c3c1OC1C4(C(N)=O)OC4CC4(O)C(C2)N(C)CCC314,1.4146,268.191,420.4359246,0.637887926
BERMUI,CCOC(=O)/C(C(=O)c1ccccc1)=C1\NC(=O)C(C#N)=C1c1ccccc1,1.3205,298.496,467.9496692,0.637880566
CEYJUN,O=[n+]1o[n-]c2c1CCc1ccccc1-2,1.3964,142.655,223.6394113,0.637879519
SONYID,Cn1nc(OC2c3cc(C#N)ccc3OC(C)(C)C2O)ccc1=O,1.3563,255.48,400.5151051,0.637878564
GAVRAX,COC(=O)CCC([NH3+])C(=O)[O-],1.3626,125.212,196.2944828,0.637878346
RATMAB,Cc1ccnc2c1C(=O)c1ccccc1C2(C)O,1.3219,191.59,300.3559575,0.637876477
ACIBAQ,CCOC(=O)/C(C#N)=C1\NC(C)=Nc2ccccc21,1.3193,204.817,321.0947849,0.637870839
HICYAW,COC(=O)c1c(-c2ccc(OC)cc2)c(C#N)c(=O)n(N)c1N,1.3708,242.713,380.5055143,0.637869862
MIPNEE,CCOc1cc(=O)[nH]nc1-c1ccccc1,1.32,173.401,271.8476142,0.637861033
BAHDOF,CC(=O)c1nc2ccccn2c1C#CC1CC1,1.2769,185.894,291.4340164,0.637859651
OGEGUD,c1ccc(C2=NCCc3cc4c(cc32)OCO4)cc1,1.3382,198.749,311.5885072,0.637857287
NOMXAR,CC(=O)c1cn(C)c2cccc(C(=O)c3ccccc3)c12,1.2952,226.623,355.2882403,0.637856744
XIYLAU,CCN(CC)c1ccc2cc(/C=C/c3ccc(/C=C/c4ccncc4)cc3)c(=O)oc2c1,1.2747,350.827,550.0151959,0.63784965
SEFVAB,O=c1c2ccccc2nc(-c2ccccn2)n1/N=C/c1ccccn1,1.3273,261.042,409.2535251,0.637849118
EANAPQ10,CCN(CC)C1=CC(=O)C(=O)c2ccccc21,1.2811,189.428,296.9795713,0.637848587
ZUXFAB,COc1ccc(C(=O)CC(C(=O)c2ccccc2N)c2ccc(OC)cc2)cc1,1.313,313.941,492.1885706,0.637846993
PULZUU,CCOC(=O)c1c(C)oc(=O)c2c(NC(=O)c3ccccc3C)cccc12,1.3423,288.121,451.7088367,0.63784672
INUDOM,O=C(c1ccccc1)C(C(=O)c1ccccc1)C1OCC(=O)N1Cc1ccccc1,1.317,321.017,503.2829193,0.637846006
AYURAO,COc1ccc(Oc2ccc(C3=C(c4ccc(Oc5ccc(OC)cc5)cc4)C(=O)N(C)C3=O)cc2)cc1,1.3385,401.341,629.2144132,0.637844575
DUXROD,Cn1c2c(c(=O)n(C)c1=O)C1c3ccccc3OCC1CO2,1.3986,227.282,356.3308582,0.637839791
BASJUC,O=C1C2CC3OC2C2C3C(O)c3ccccc3N12,1.4129,182.234,285.7063456,0.637836726
UJESEH,CCN(CC)c1ccc(C2=C/C(=N\O)C(=O)c3ccccc32)cc1,1.2881,263.258,412.7359713,0.637836337
UMOWUR,COC(=O)c1ccc(-c2c(=O)c3ccccc3[n-][n+]2-c2ccccc2)cc1,1.3276,284.116,445.4401799,0.637831998
TULDEL,COc1ccc(O)c(/C=N/c2ccc(OC)c(OC)c2)c1,1.3272,229.135,359.2408287,0.637831175
XINRIV,O=C(NCc1ccccc1)NCc1ccccc1,1.2677,200.629,314.5489252,0.637830823
KETQEG,COc1ccc2c(c1)C(Nc1cccc3c1C(=O)c1ccccc1C3=O)C1CCOC1O2,1.3722,329.704,516.9158723,0.637829128
EFUBEN,CCOC(=O)C1=CC(=O)C2C(N1)c1cc(OC)ccc1OC2(O)C(=O)OCC,1.4022,295.445,463.2042688,0.637828751
TIZCOX,CCOC(=O)CC1c2cc(C#N)ccc2C(=O)N1c1ccccn1,1.3345,254.86,399.5784889,0.637822123
HEZXUG,CCOC(=O)C12OC1C1COC(c3ccccc3)N1C2=O,1.3831,221.386,347.0979644,0.637819932
GIGFIN,O=C(/C=C/c1cccnc1)NCCCCNC(=O)/C=C/c1cccnc1,1.2889,287.756,451.1594403,0.637814427
YAGSOQ,COC(=O)C1=C(NC(C)(C)C)Oc2c(c(=O)oc3ccccc23)C1C(=O)OC,1.3811,296.884,465.4775689,0.63780517
ANUSAF,CC(=O)N1C(O)C(C)C2c3ccccc3C(=O)C21,1.3398,193.76,303.7928676,0.637802992
EKEWAS,COc1ccc(C2=CC3C=Cc4cccc5c4C23C(=O)N(C)C5=O)cc1,1.3331,272.606,427.4146519,0.637802187
JUGWIR,COc1ccc(C2c3c(C)ccc(C)c3C(=N)c3c(C)ccc(C)c32)cc1,1.2634,297.765,466.8628432,0.63779974
MUCPIK,O=C1CCC2C(O)C3OCCC3CN12,1.3864,150.577,236.0883469,0.637799375
VOBGEY,Cc1noc(/C=N/Nc2ccccc2)n1,1.3285,161.109,252.6030232,0.637795217
CULWEL,N#CC12CC1c1ccccc1C=CC2=O,1.2757,161.951,253.923813,0.637793668
WORPEB,COc1ccc(-c2ccn(C(=O)C(C)C(=O)c3ccccc3)n2)cc1,1.3121,269.709,422.8787223,0.63779279
XASQIR,Cc1c2c(n(C)c1C)C1=NCC34C1=C(C2=O)C(c1ccccc13)c1ccccc14,1.3251,300.651,471.3963093,0.637788192
VACHAK,COc1ccc(O)c(/C=N/NC(=O)c2ccncc2)c1,1.3442,213.598,334.9066396,0.637783713
NOTQOF,CCN(CC)c1ccc2cc(/C=N/c3cc(C)ccc3O)c(=O)oc2c1,1.3072,283.704,444.829214,0.637781852
FOKSUU,COC(=O)/C(NC(=O)c1ccccc1)=C1\CCCC1=O,1.3371,216.319,339.1743618,0.637781107
OJIGOF,O=C1C(=O)N(CCCCCCN2C(=O)C(=O)c3ccccc32)c2ccccc21,1.3347,298.472,467.9867499,0.637778741
TOLLUC,CCOC(=O)C12N3Cc4ccccc4CN1C(=O)N1Cn4c5ccccc5c(=O)n4CN(C3=O)C12C(=O)OCC,1.4234,406.391,637.204556,0.637771648
ISOCIE,COC1=CC2C(O)c3ccccc3N3C(=O)CCC23C=C1OC,1.3613,243.612,381.9775334,0.637765258
YATCIH,COC(=O)C1=C(C(=O)OC)N2C=Cc3ccccc3C2C2(C(O)OC)C(=O)c3ccccc3OC12,1.397,361.719,567.1743838,0.637756236
WUMDUD,CN1C(=O)c2ccccc2-n2c(nc3ccccc3c2=O)-c2ccccc21,1.3478,277.467,435.068362,0.637754947
BUVSES,CCN1c2ccccc2C2C(=O)N(c3ccccc3)C(=O)C21,1.3264,233.242,365.7240861,0.637754003
IGEFOR,CCOC(=O)c1cc2cc(C#Cc3ccc(N(C)C)cc3)ccc2oc1=O,1.3126,291.374,456.8755267,0.637753574
ICUSAA,CC(=O)CC(=O)n1ccc2cccnc21,1.3256,161.441,253.1415677,0.637749862
DAVRAV,CN(CCOc1ccc(/C=N/O)cc1)c1ccccn1,1.3032,220.333,345.4895079,0.637741509
LEFYEC,COC(=O)c1cc2c(OCc3ccccc3)ccc(OC)c2n1C,1.3272,259.435,406.8062208,0.637736069
COJGAK01,O=C1OCCN1c1c(-c2ccccc2)nnn1Cc1ccccc1,1.3396,253.077,396.8374419,0.637734682
GUWRUO,CN(C(=O)/C(=C/c1ccccc1)c1ccccc1)C(=O)c1ccccc1,1.2719,284.043,445.3964195,0.637730767
KIXSIT,O=C1C=C2NCC3CC23c2ccccc21,1.3213,157.96,247.6937838,0.637722907