name,smiles,Density,Vint,Veff,pc
QIKXEP,O=C(C1=CON2C(=O)c3ccccc3C12O)c1ccccc1,1.4351,226.812,339.1192686,0.668826637
GAPMUH,O=C(O)c1ccc(C/N=C/c2ccncc2)cc1,1.3685,194.846,291.3359523,0.668801768
YUMXUA,CCn1c(=O)nc2n(C)c3cc(C)c(C)cc3nc-2c1=O,1.4122,223.448,334.1041193,0.668797501
MUVDOX,O=C(C(=O)n1cccn1)n1cccn1,1.4474,145.826,218.043039,0.668794568
TIPSES,COc1ccc(C(=O)c2cc(C#N)c3ccccn23)cc1,1.3705,223.728,334.5310841,0.668780901
IWUKUH,O=c1ccc2c3ccoc3cc3c2n1CCC3,1.4304,174.752,261.30184,0.668774472
NUPTEY,O=C1Nc2ccccc2/C1=N\c1ccc(O)cc1,1.4052,188.155,281.3450485,0.668769545
BIMSIZ,CC(=O)Oc1cccc2ccc(=O)[nH]c12,1.4255,158.194,236.5475402,0.668761974
NUMNOY,O=C(Cc1n[nH]c(=O)[nH]c1=O)c1ccccc1,1.4454,177.534,265.4666721,0.668761915
WOFYUN,O=C(N/N=C/c1cccc(O)c1O)c1cccnc1,1.4267,200.099,299.2269689,0.668719804
TIQFEE,O=C(O)Cn1c2ccccc2c(=O)c2ccccc21,1.4176,198.241,296.4549288,0.66870536
PYRDIL02,O=C(C(=O)c1ccccn1)c1ccccn1,1.3824,170.341,254.7341389,0.668701104
QIYPOF,O=c1oc2ccccc2c2c3c4n(c(=O)c12)CCCN4CCCC3,1.4465,247.279,369.8112488,0.668662732
XAGGAO,CCOC(=O)c1cn(CC#N)cc2c(=O)n(-c3ccccc3)nc1-2,1.41,253.657,379.3547545,0.668653805
LOMLIJ,CCC(=O)NNC(=O)c1cc2ccccc2cc1O,1.4135,202.747,303.2200882,0.668646333
IVAZAG,CC(=O)N1c2ccccc2C2=CC(C)C3C(=O)OC(=O)C3C21,1.4376,229.462,343.1861708,0.668622513
UFEWEJ,O=c1nc2oc(CCCO)cc2cn1C1CC(O)C(CO)O1,1.4836,232.088,347.1147461,0.668620399
RIHMUT,Oc1ccc(CNCc2ccco2)cc1,1.3543,166.5,249.0282363,0.668598881
ZARWAS,COC(=O)c1[nH]c(=O)c2ccccc2c(=O)c1C,1.4258,190.831,285.4266112,0.668581669
KOGBIR,Cc1cn(C2CC(N)C(CO)O2)c(=O)[nH]c1=O,1.4693,182.183,272.4978213,0.668566814
PICAMD06,NC(=O)c1ccccn1,1.3704,98.876,147.8932648,0.668563238
GEPKUI,N#Cc1cccc(Oc2ccnc3ccccc23)c1C#N,1.3645,220.557,329.8984372,0.668560306
ISAJIV,N#Cc1ccc(C(=O)[N-][N+]#N)cc1,1.3784,138.561,207.259976,0.668537181
ZOHSAT,N#C/C(=C\c1cc2ccccc2o1)c1cc2ccccc2o1,1.3734,230.438,344.693572,0.668530018
YASREP,CN1CC(=O)N(C)C(N2C(=O)c3ccccc3C2=O)C1=O,1.454,219.199,327.8835352,0.668527012
OXADUO,COC(=O)c1cc2c(c(C(C)=O)c1)Nc1ccccc1C2,1.3905,224.429,335.7089422,0.668522556
NOQFAB,O=c1[nH]nc(Cn2cncn2)n1-c1cccc2ccccc12,1.4327,226.339,338.5728445,0.668509019
TAJYIQ,Cc1nc2n(n1)C1(CCC(=O)O)CCC(=O)N1c1ccccc1-2,1.4567,237.862,355.8112119,0.668506197
IDIXUP,O=C1CCC(N2C(=O)c3ccccc3C2=O)C(=O)O1,1.4869,193.39,289.3101277,0.66845223
IJEPUI,O=C1c2ccc(N3C(=O)C=CC3=O)cc2C(=O)N1Cc1ccccc1,1.4268,258.349,386.4953472,0.66844013
UTIKUG,COc1ccc(O)c(/C=N/c2nc3ccccc3[nH]2)c1,1.407,210.721,315.243461,0.668438924
CIQLUK,C=C(C#N)C1(O)C(=O)c2cccc3cccc1c23,1.374,189.897,284.0947331,0.668428442
QAJWOR,NC(=O)N/N=C/c1ccccc1N,1.4024,140.95,210.8733003,0.668410841
FEBFUO,C=C1c2ccccc2C(=O)c2c1c1c(C(=O)OC)c(O)ccc1n2Cc1ccccc1,1.4116,321.703,481.3003799,0.668403794
OZIHOV,CC(=O)C1=C(C)NC2(O)c3ccccc3C(=O)C12O,1.4382,199.949,299.1486933,0.668393359
UNUPEA,Oc1ccc(O)c(/C=N/n2cnnc2)c1,1.4387,157.422,235.538947,0.668348067
GURRIX,C#CCOC1=C/C(=N\c2ccc(C(C)=O)cc2)c2ccccc2C1=O,1.3567,269.221,402.8245627,0.668333128
MIMZUG,CC(=O)c1c(O)ccc2oc(C(=O)OC(C)C)nc12,1.4429,202.341,302.7719218,0.668295127
MOFFEV,CC1OC2C(n3ccc(=O)[nH]c3=O)OC1(CO)C2O,1.5196,197.244,295.1457358,0.668293579
GOKSIL,Cc1ccc(-c2noc(=O)[nH]2)cc1,1.4163,137.944,206.4272215,0.6682452
GAVNOG10,Cn1c(=O)c2ccccc2n(CCO)c1=O,1.4268,171.168,256.1485884,0.668237139
PAVCUM,Cc1ccc(C(=O)C[N-][N+]#N)cc1,1.3395,145.035,217.0427902,0.668232287
VIQCUU,CCOC(=O)c1c(O)c2cccc3c2n(c1=O)CC3,1.448,198.543,297.1240682,0.66821581
NEDPOB,O=C1NC(=O)C(CCO)(CCO)C(=O)N1,1.503,159.524,238.7315478,0.668214995
CACHAP,On1nnc2ccccc21,1.451,103.272,154.5505448,0.668208579
XOLGIP,NC(=O)N/C=C1\CCOC1=O,1.4641,118.269,176.9977659,0.668194875
POWYOQ,Oc1cccc(/C=N/N=C/c2cccc(O)c2)c1,1.3696,194.508,291.1019646,0.668178245
SUNFOW,Cn1c(=O)c2cc3c(=O)n(C)c(=O)n(C)c3nc2n(C)c1=O,1.4967,224.691,336.288147,0.668150222
LEZNOT,CC1=NOC(=O)/C1=N\Nc1ccccc1,1.411,159.682,238.9916177,0.668148956
WUSZAM,COc1ccc(-c2cnnc(Nc3ccccc3)n2)cc1,1.3783,223.883,335.0799488,0.668148007
CICTUE,O=C(CC(=O)Nc1ccccn1)Nc1ccccn1,1.4101,201.506,301.5907099,0.668143923
SIHPUW,O=C1c2ccccc2C(=O)C12Nc1cccc3cccc(c13)N2,1.4265,233.404,349.3370143,0.668134181
ALEXIA,COC(=O)C1=C(c2nc3ccccc3[nH]2)N2C=Cc3ccccc3C2C1C(=O)OC,1.4271,311.862,466.7710921,0.668126208
MATVAE,O=C([O-])C1[NH2+]CC1c1ccccc1,1.3695,143.455,214.7187674,0.668106481
LANJUH,O=C(O)CN1CC(=O)N(c2cccnc2)C(=O)C1,1.4675,188.303,281.8493163,0.668098126
ROFXEQ,CC(=N\Oc1cnccn1)/C(C)=N/Oc1cnccn1,1.4196,212.652,318.295907,0.668095302
XIBDAP,OCC1=Nc2cccc3cccc(c23)N1,1.4006,156.901,234.8497123,0.668091089
VIKLAD,COc1cccc(/C=N/c2ccc(O)c(C(=O)O)c2)c1O,1.4415,220.945,330.7138439,0.668085126
DAZCYT10,Nc1ccn(C2OC(CO)C(O)C2O)c(=O)c1,1.4916,180.061,269.5193784,0.668081832
COFCUV10,O=C1CC(NC(=O)c2ccccc2)(C(=O)O)CO1,1.461,189.126,283.0904979,0.668076115
WOYYUH,O=C(c1ccccc1)c1c2ccccn2c(=O)n1Cc1ccccc1,1.3745,264.836,396.4190816,0.668070767
MURDUY,CCOC(=O)C(=O)Nc1cc2ccccc2oc1=O,1.4504,199.683,298.8985228,0.668062853
BEWDAL,Cc1cc(=O)oc2cc(-c3cn(C4OC(CO)C(O)C4O)nn3)ccc12,1.4794,269.286,403.0964902,0.668043524
YUGTOM,O=C(N/N=C/c1ccc(O)cc1O)c1ccccn1,1.4263,199.943,299.3108858,0.66801112
RABXEA,Cc1nc(C(=O)NCC(=O)O)c(O)c2ccc(Oc3ccccc3)cc12,1.4359,272.011,407.2059986,0.667993598
TAXMIQ,CCn1c2ccc(OC)cc2c2cc3c(cc21)-c1ccccc1C3=O,1.3843,262.131,392.4187801,0.667987908
DADLAV,C=C1NC(=O)C(N)=C1C(C)=O,1.4018,120.325,180.1315978,0.66798386
QIQFUU,Cc1cnc(C(=O)NN)cn1,1.408,119.804,179.3516533,0.667983806
QEMBIU,COc1cccc(NC(=O)C(=O)Nc2cccc(OC)c2)c1,1.402,237.445,355.4667176,0.667980962
ADPROP,NC(=O)CCn1cnc2c(N)ncnc21,1.4587,156.718,234.6169369,0.667973941
TAPJUP,CC1(O)c2ccccc2-[n+]2[n-]oc(=O)c21,1.4679,154.195,230.8408127,0.667971136
LEGYED,COC(=O)Cn1c(-c2nc3ccccc3n2CC(=O)OC)nc2ccccc21,1.4327,292.76,438.2824988,0.667971002
GINPIE,CC1C(O)c2cccc[n+]2C1(O)C(=O)[O-],1.4542,159.469,238.7427192,0.667953354
PUHYEY,COC(=O)c1cnn2c(=O)ccn(Cc3ccccc3)c12,1.4185,221.365,331.412552,0.667943923
XANRUB,O=C1C=C(n2c3ccccc3c3ccccc32)c2ccccc2C1=O,1.3924,257.377,385.3281674,0.667942346
QECHUD,COC(=O)c1cccc(Oc2cc(C#N)c(C#N)cc2Oc2cccc(C(=O)OC)c2)c1,1.4028,338.496,506.7751987,0.667941132
UBAGIP,O=C(O)CCN1C(=O)c2cccc3cccc(c23)C1=O,1.4484,206.047,308.4891344,0.667923038
KICROD,CC12N3COCN1C(=O)N1COCN(C3=O)C12C,1.5443,182.501,273.2376863,0.667920309
HOHRUU,Cc1cccc2c1c1ccccc1c(=O)n2-c1cccc2cccnc12,1.3747,271.192,406.0313324,0.667909046
SAQSAE,O=C1c2ccccc2C(O)N1CO,1.4387,138.036,206.6755533,0.66788741
KAXYIU,COc1ccc(-c2nn(-c3ccccc3)c(=O)o2)cc1,1.4135,210.348,314.949845,0.667877769
YAXQAS,O=C1NC2=C(CCc3ccccc32)C1=O,1.4146,156.065,233.6805905,0.667856066
OLUVEZ,Oc1ccc(Cn2ccnc2)c2cccnc12,1.3902,179.563,268.8712459,0.667840101
BICFOL,C/C(=N\NC(=O)c1ccncc1)c1ccc2c(c1)OCO2,1.4204,221.031,330.9692374,0.667829438
VUXMEJ,CC(c1cccc[n+]1[O-])(c1cccc[n+]1[O-])c1cccc[n+]1[O-],1.4147,242.315,362.8403856,0.667828085
ZAZGIS,CCOC(=O)c1ccc(Oc2cc(O)c3c(c2N)C(=O)c2ccccc2C3=O)cc1,1.4433,309.734,463.7962574,0.667823414
CEGQAJ,O=Cc1ccccc1NC(=O)/C=C/c1ccc(O)cc1,1.3687,216.405,324.0512132,0.667811109
WORCOX,O=C(c1cnn2c(-c3cnccn3)ccnc12)N1CCOCC1,1.4522,236.816,354.6217174,0.66779892
REYBIJ,Oc1cccc(-c2cc(-c3ccccn3)nc(-c3ccccn3)c2)c1,1.3637,264.383,395.9058318,0.667792638
SAMXOU,Cn1ncc(/C=C/C(=O)c2ccccc2)cc1=O,1.3613,195.581,292.8768463,0.667792632
COFQEU,COc1ccc(-c2nnc(-c3nnc(-c4ccc(OC)cc4)o3)o2)cc1,1.4412,269.381,403.3989446,0.667778148
SATNAC,COc1ccc2c(OC)c3ccoc3nc2c1OC,1.4337,200.391,300.0876409,0.667774919
EPANUF,O=C([O-])CC[NH2+]CCCO,1.3705,119.013,178.2246594,0.667769547
CAVPIY,C=C1Oc2cc(OC)cc(C(=O)OC)c2NC1=O,1.46,189.168,283.2843955,0.667767102
VUZGAB,Cc1cc2c(c(=O)o1)C(c1ccc(C#N)cc1)C(C#N)=C(N)O2,1.4337,235.961,353.3625699,0.667758897
VAWGAB,NNC(=O)c1ccccc1O,1.4161,119.068,178.3126006,0.667748659
NUPZUU,Cc1cccc(C(=O)N/N=C/c2cc(O)ccc2O)c1O,1.4225,223.015,333.98239,0.667744787
BARFUP,OCC1OC(n2cnc3c(NCc4ccccc4)ncnc32)C(O)C1O,1.4563,271.933,407.2463331,0.667735908
ECITIU01,CCOc1ccccc1NC(=O)C1=Cc2ccccc2/C(=N/Nc2ccc(C(N)=O)cc2)C1=O,1.4026,359.043,537.7049145,0.667732413
VENXIV,CN(CC(=O)[O-])C(=O)CNC(=O)C[NH3+],1.4438,155.972,233.5865496,0.667726803
AWUMUB,O=C1Nc2ccccc2C(=O)N2CC(O)CC12,1.4582,176.479,264.2984543,0.66772619
GAKYAT,CC(O)=C1C(=O)N(C)C(=O)N(C)C1=O,1.4732,149.074,223.2590095,0.667717735
FEXGOE,CC(=O)NC1C(=O)OC(CO)C1O,1.4927,140.44,210.3297497,0.667713436
OPOXAZ01,Oc1cc(-c2ccccc2)on1,1.3876,128.689,192.7326138,0.667707439
ZIXMEY,COc1cc(O)ccc1/N=N/c1ccccn1,1.3931,182.333,273.0735491,0.66770656
CIHGOP,Cc1ccc(-[n+]2cc(=O)o[n-]2)cc1,1.4078,138.664,207.6735855,0.66770167
TRFUTM,Cc1cn(C2CC(O)C(C(=O)NCCc3c[nH]c4ccccc34)O2)c(=O)[nH]c1=O,1.4467,305.144,457.0283185,0.667669787
XAKHUP,Cc1ccc(C(=C/C=C2\C(=O)c3ccccc3C2=C(C#N)C#N)c2ccc(C)cc2)cc1,1.3058,349.953,524.1452363,0.667664181
XIVJIW,COC(=O)C1=C(C)NC(=O)NC1c1ccco1,1.453,180.138,269.8100214,0.667647551
FOYXOG,NC(=O)c1ccnc(C2OC(CO)C(O)C2O)n1,1.5026,188.21,281.9080363,0.66762907
SUQWIK01,O=C1C=Cc2ccccc2/C1=C/Nc1ccccn1,1.3613,202.051,302.6419566,0.667623889
PUHCOL,COC(=O)c1cnccn1,1.4226,107.579,161.1374141,0.667622728
ENIVIG,O=C(O)c1c[nH]c2ccccc12,1.4138,126.287,189.1609668,0.667616592
AFOCOP,CN1C(=O)C(=C(C#N)C#N)c2ccccc21,1.3511,171.543,256.9485819,0.66761606
KIZKUA,CC1CNC(=O)C(=O)N1,1.4417,98.474,147.5023055,0.667609904
HOJTUW,Cc1nc2c(=O)n(C)c3ccccc3c2o1,1.4218,166.921,250.0293024,0.66760575
DEXVIO,O=C1/C(=C(\O)c2ccncc2)Cc2ccccc21,1.3806,190.372,285.1610545,0.66759467
VUZFIG,O=C1c2ccccc2C(=O)N1/N=C/c1ccccc1O,1.4235,207.193,310.3859624,0.66753341
MAQCEN,O=[N+](/N=c1\[n-]onc1N1CCOCC1)c1nonc1N1CCOCC1,1.5282,255.419,382.6316723,0.667532299
MHBZAZ,COc1cc(O)c(=O)c2ccccc2n1,1.4183,158.704,237.7483738,0.667529277
GEVFET,c1cc2c(cc1CNc1ccc(NCc3ccc4c(c3)OCO4)cc1)OCO2,1.4233,292.939,438.8547146,0.667507925
OBIDEI,COC(=O)/C(=C\C#N)NC(C)=O,1.3848,134.517,201.5234179,0.667500589
NAMQAW,COC(=O)c1cc(C#N)c2[nH]c3ccccc3c2c1C,1.3787,212.322,318.0878006,0.667494948
XIFQUZ,O=C(O)CN1CC(=O)Oc2ccccc21,1.4711,156.01,233.724746,0.667494575
KECYID,CC(=C(C#N)C#N)c1ccco1,1.3131,133.414,199.8739853,0.667490568
OLIVOV,COc1ccc2c(c1)c1ccccc1c(=O)n2OC,1.4013,201.776,302.29194,0.667487198
ZIMWOK,COc1ccc(C(=O)c2ccccc2C(=O)c2n[nH]c3ccccc23)cc1,1.3854,284.918,426.8560581,0.667480277
COMPOJ,NC(=O)N/N=C(\CCC(=O)O)C(=O)O,1.5059,149.458,223.9138312,0.667479982
JABKUV,O=C(c1ccccc1)n1c(=O)cc[nH]c1=O,1.4373,166.616,249.6197238,0.667479306
OPOFOQ,c1ccc(-c2nnc3n2CCC2CON=C32)cc1,1.4165,187.879,281.4768125,0.66747594
BUJJUL,Cn1c(=O)ccn(C2OC(CO)C3OC32)c1=O,1.5012,177.259,265.566158,0.667475861
HODQUP,NC(=O)CN1CCN(C(=O)COc2cc(=O)oc3ccccc23)CC1,1.4463,264.495,396.2711615,0.667459623
KUHGEA,NC(=O)N/N=C/c1ccccn1,1.4011,129.787,194.4574463,0.667431371
WECCAK,CNc1c(NC)c(=O)c1=O,1.3869,111.926,167.6986616,0.667423335
IDOCIO,O=C(Nc1ccccc1C(=O)Oc1ccccc1)c1ccccn1,1.392,253.274,379.4810305,0.667422031
VAJTAE,O=C(N/N=C/c1ccc(O)cc1O)c1ccco1,1.4499,188.09,281.8221758,0.66740667
CUBRUM,Nc1ncnc2c1ncn2CCC(=O)NC1CC(=O)NC1=O,1.4886,225.66,338.1305412,0.667375385
MLUMIF,Cc1cc2nc3c(=O)n(C)c(=O)nc-3n(C)c2cc1C,1.4242,210.187,314.9469518,0.667372708
POGBOE,CCn1nc2cccc3c2c1-c1ccccc1C3=O,1.3813,199.043,298.2599693,0.66734735
HADFEX,c1ccc(-c2cnc(-c3cccc4ccccc34)o2)cc1,1.3526,222.112,332.8317205,0.667340239
XEBZIP,COc1ccccc1N1C(=O)C=CC1=O,1.4102,159.568,239.1139686,0.667330315
WEVZII,N#COc1ccc(/C=C/c2cc(OC#N)cc(OC#N)c2)cc1,1.3768,243.927,365.5351017,0.667314846
MIGVUW,Cc1c(-c2ccco2)nc2c(C#N)c(N)nc3c2c1C=NN3c1ccccc1,1.4184,286.036,428.6405125,0.667309766
LUNMAL,N#C/C(=N\O)C(=O)c1ccccc1,1.373,140.467,210.4994066,0.667303544
ILIDIS,O=C(O)c1ccc(-c2ccncc2)c2ccccc12,1.3782,200.267,300.1164938,0.667297546
CEXYAG,CON(C)C(=O)c1n[nH]c2ccccc12,1.4022,162.072,242.8785916,0.667296359
CEFYIX,Cc1ccc(-c2cc(C(=O)O)c3ccccc3n2)cc1,1.3676,213.172,319.4610561,0.667286343
QANQEC,COc1cc2c(OC)cc1CCc1cc(C#N)c(cc1C#N)CC2,1.3602,259.165,388.3973064,0.667267758
KUTHOW,Cc1cn(C2CC(C)(O)C(CO)O2)c(=O)[nH]c1=O,1.4666,193.493,289.9832903,0.667255689
KOSTUK,COc1ccc2c([nH]c3c(C)nccc32)c1C=O,1.3964,190.509,285.515075,0.667246729
LOMFAW,CN1C(=O)C2=CC3=Cc4ccccc4C=C(C=C2C1=O)C3,1.3854,220.018,329.7402486,0.667246419
WAFTAB,COc1ccc(N2C(=O)c3ccccc3C2C#N)cc1,1.3684,213.839,320.4820599,0.667241717
YIZQUU,CN1CC2(C(=O)c3ccccc3C2=O)N(C)CC12C(=O)c1ccccc1C2=O,1.4219,291.537,436.9327848,0.667235351
TOPBIK,Cn1c([O-])c(C2c3ccccc3-c3ccccc3[N+]2(C)C)c(=O)n(C)c1=O,1.4034,286.718,429.7140223,0.667229797
YOGPER,O=C1C=C2OCC=C2N1C(=O)Nc1ccccc1,1.4368,186.673,279.774511,0.667226615
UFAXAC,N#Cc1ccc2c(n1)C(O)C(O)C=C2,1.3985,148.994,223.3035923,0.667226167
MEXNOV,CCC1(O)C(=O)OCc2c1cc1n(c2=O)Cc2cc3ccccc3nc2-1,1.449,266.18,398.9462652,0.66720765
RARMIJ,Cc1nn(Cn2ncc(C(=O)O)c2C)cc1C(=O)O,1.4591,200.531,300.5558019,0.667200562
LOGPEF,O=C1OC(NCCNC2OC(=O)c3ccccc32)c2ccccc21,1.4243,252.122,377.8829868,0.667195954
AZHPXA,Cn1nnc2nc(-c3ccccc3)[nH]c(=O)c21,1.4356,175.252,262.6708184,0.6671925
NUVYUB,COn1nnc2cnccc21,1.4429,115.22,172.6938384,0.667192304
GOYSIY,CC(=O)n1c2ccccc2c2c(=O)c3ccccc3oc21,1.4236,215.634,323.2009744,0.667182395
YAYBEH,NC(=O)OCc1ccc(COC(N)=O)cc1,1.4389,172.531,258.6050186,0.667160293
FOBSIY01,O=c1n(-c2ccccc2)c(=O)n2n1C1C=CC3C(C=C1)C32,1.4396,214.789,321.9468947,0.667156613
VALYAJ,O=c1[nH]c(Nc2ccc3c(c2)OCO3)cc2ccccc12,1.4359,216.1,323.9144829,0.667151398
VIPSUI,CC(=O)Nc1ccc(C(=O)O)cn1,1.4338,139.123,208.5345438,0.667146063
TOHROY,Nc1cc(=O)c2ccccc2o1,1.4213,125.531,188.1627911,0.667140402
KAHTUJ,Cc1cccc2[nH]c(=O)n(C3OC(CO)C(O)C3O)c12,1.4784,209.9,314.6265513,0.667140135
XALPUV,O=C1CCC(O)C(O)CN1,1.4443,111.279,166.8003234,0.667138994
NAWBIW,N#Cc1ccccc1-n1cnc2ccccc2c1=O,1.3785,198.563,297.6365742,0.667132393
PADVUP,O=C(c1cccc(C(=O)n2c3ccccc3c3ccccc32)n1)n1c2ccccc2c2ccccc21,1.3953,369.314,553.5901349,0.667125327
GEQRUS,CC12Cc3ccc(C#N)cc3C(CCC1=O)C2=O,1.368,193.622,290.2343131,0.667123049
XUGKEP,OCC1OC(n2ncc3cncnc32)CC1O,1.4799,176.728,264.9183156,0.667103743
OZABAV,COc1cc(NC(=O)c2cccc3ccccc23)cc(OC)c1OC,1.38,270.624,405.6814611,0.667084957
CEWPOM,O=c1[nH]c(/C=N/Nc2ccccc2)nn1-c1ccccc1,1.3938,221.828,332.5393915,0.667072851
KUDNUU,CC1(O)c2ccccc2N2C(=O)NC(=O)C23C=CC1O3,1.4821,203.355,304.8482297,0.667069644
KASZAF,Oc1ccccc1/C=N/c1ccc2ccc3c(/N=C/c4ccccc4O)ccc4ccc1c2c43,1.378,353.824,530.4188715,0.667065256
AWITEH,Cn1c(=O)c2c(ncn2Cc2cc(=O)oc3c2ccc2ccccc23)n(C)c1=O,1.4538,295.719,443.326006,0.667046363
CERHEN,Cn1ccnc1C(=O)c1nccn1C,1.3855,151.97,227.8281605,0.667037822
ADEHXL10,CC(=O)NC1=CC(C(O)CO)OC1=O,1.4699,151.517,227.1490696,0.667037731
XOSCAM,N#CC(C#N)=c1ccc(=C(N2CCN(CCO)CC2)N2CCN(CCO)CC2)cc1,1.3605,334.004,500.7347049,0.667027863
PETDEA,O=C1c2cc3ccccc3c(-c3ccccc3)c2-c2nc3ccccc3n21,1.3828,277.239,415.6431039,0.667012149
KANSID,O=C(O)c1ccccc1Cn1c(=O)oc2ccccc21,1.4386,207.167,310.5906174,0.667009846
WIGQEK,Cc1c(C(=O)N/N=C2\C(=O)Nc3ccccc32)nnn1-c1ccccc1,1.4271,268.637,402.7491121,0.667008298
OGEYAA,O=c1ccccn1-c1nc2ccccc2[nH]1,1.4095,165.865,248.677132,0.666989356
NEQTEJ,O=C1c2ccccc2C(=O)N1CCO,1.422,148.814,223.1162578,0.666979634
KISFOJ,O=c1cc(-c2nc3ccccc3o2)c2ccccc2o1,1.4349,203.05,304.4355137,0.66697212
IHUVIT,C[N+](C)(CCC(=O)[O-])CCC(=O)O,1.3799,151.78,227.5669536,0.666968545
SARCOG,O=C1c2ccccc2C(=O)N1CC1Nc2ccccc2Cc2ccccc21,1.3845,283.298,424.7595639,0.66696085
BZHYDX01,O=C(NOC(=O)c1ccccc1)c1ccccc1,1.3754,194.121,291.0624598,0.666939324
DOZYAS01,CCOC(=O)c1ccccc1-n1c2ccccc2c(=O)n2c3ccccc3nc12,1.414,300.084,449.9439052,0.66693647
NEFGOX,Cc1ccc(-c2noc(Cc3ccccc3C(=O)O)n2)cc1,1.3855,235.086,352.4959903,0.666918225
LEKLUI,COC(=O)/C=C(/C(=O)OC)c1c(N)nc(OC)n(C)c1=O,1.4591,225.494,338.1247064,0.666895958
APYRCX,O/N=C\c1ccncc1,1.3558,99.689,149.4858608,0.666879125
ELUHAX,Cc1c2oc3ccccc3nc-2cc(O)c1=O,1.433,175.47,263.1213667,0.666878567
EMOMIF,O=C1CN(c2ccccc2)C(=O)CN1c1ccccc1,1.3781,213.837,320.6551334,0.666875337
RUCVUH,c1cc2cc(c1)Oc1cncc(n1)Oc1ccccc1Oc1cncc(n1)O2,1.4747,279.407,418.9908257,0.666857083
FUMLUW,CC(=N\O)/C(C)=N/N=C/c1ccccc1O,1.3571,178.78,268.1001767,0.666840292
EACWIO,O=C1OC23C4c5ccccc5C5C(C(=O)OC52C2C=CC3n3c(=O)n(-c5ccccc5)c(=O)n32)C14,1.5183,340.665,510.8909619,0.666805689
YOGYEY,Cc1cn(CC2OCC(CO)O2)c(=O)[nH]c1=O,1.4797,181.162,271.6868993,0.666804327
CIDRAI,O=C(c1ccccc1)c1ccc2[nH]c(=O)oc2c1,1.4189,186.556,279.7801949,0.666794875
DICPUA01,O=[n+]1o[n-]cc1-c1ccccc1,1.421,126.266,189.3655773,0.666784332
JOMMIK,O=C(c1ccccc1)c1c(C2CC2)c2c3ccccc3c3cccc1n32,1.3508,274.708,411.9918286,0.666780215
KEKHEO,c1cncc(-c2nnc(-c3cccnc3)o2)c1,1.4101,175.945,263.875135,0.666773699
WIBMIE,O=c1ccc2cccc3nc(Nc4ccccc4)n1c23,1.4034,205.987,308.9400071,0.666754047
GAZCOB,COC(=O)c1cnc(-c2ccc(-c3cc(C(=O)OC)c(C(=O)OC)cn3)cc2)cc1C(=O)OC,1.433,358.601,537.8373595,0.666746171
AQIDIO,COc1ccc(/N=N/c2ccc(O)c(C(C)=O)c2)cc1,1.3769,217.185,325.7526287,0.666717567
AMODIR,COc1cc2c(c(OC)c1OC)CNC2=O,1.4363,171.957,257.922475,0.666700333
SARBUI,C=CC([NH3+])(CO)C(=O)[O-],1.4039,103.352,155.0219521,0.666692675
WEZFAJ,O=C1c2cccc3cccc(c23)C(=O)N1Cc1ccccc1,1.3821,229.969,344.9456192,0.666681898
MXSALO,COc1ccc(O)c(/C=N/O)c1,1.4061,131.533,197.295298,0.666680865
KISHUR,COC(=O)/C1=C/c2ccccc2OCc2cnnn2C1,1.4198,211.383,317.0738871,0.666667955
URUXUD,Cn1nccc1Nc1cnn(C)c1N=O,1.4293,159.622,239.4428923,0.666639124
YUMDUG,CNc1cc(C(=O)OC)c(O)c2ccccc12,1.3941,183.5,275.2652575,0.666629714
VUMJET02,O=c1[nH]c2ccccc2cc1-c1ccccc1,1.354,180.753,271.1463786,0.666625167
QOYCOZ,O=C1C=Cc2ccccc2/C1=N/Nc1ccc(C(=O)O)cc1,1.4092,229.441,344.1924539,0.666606712
XAMTIP,Nc1nccnc1C(=O)c1ccccc1,1.3784,159.873,239.8311213,0.666606565
IFADEB,COc1ccc2cc(-c3nc4ccccc4[nH]3)c(=O)oc2c1,1.4296,226.164,339.280922,0.666598047
LEGHUC,Cc1noc(N)c1C#N,1.3871,98.191,147.304189,0.66658661
QUYRUY,O=C1CN(/N=C/c2c(O)ccc3ccccc23)C(=O)N1,1.442,206.556,309.8712319,0.666586565
HECLUZ,N/C=C1\CCCCn2c1nc1ncccc1c2=O,1.4094,190.151,285.2696845,0.666565746
XOQJAP,C=CCn1c(=O)c(-c2c(O)c3ccccc3n(CC=C)c2=O)c(O)c2ccccc21,1.4052,315.19,472.8695667,0.666547442
HCPZBO,O=C(O)c1cccc2c1C(=O)N1CC3(CCCCC3(O)CN1)O2,1.4823,237.547,356.3871563,0.666541978
BIZWIS,O=C1C(=C2NCCN2)Oc2ccccc21,1.4308,156.321,234.5292579,0.666530911
BOBCUO,COC1(C)OC23NC(=O)N(C(C)=O)C2(NC(=O)NC3=O)O1,1.5839,209.687,314.6014498,0.666516318
YIFPAF01,O=C(N/N=C/c1ccccc1O)c1ccc(O)cc1,1.4024,202.106,303.2333187,0.666503275
NEQNAY,COc1cc(C=O)c(-c2cn(C)c3ccccc23)oc1=O,1.4123,221.842,332.8542454,0.666483913
KIYMOW,COc1ccccc1OC(=O)Nc1ccccn1,1.4044,192.353,288.6123654,0.666475256
MAYXIV,Cc1c2c(=O)n(-c3ccccc3)nc-2[nH]c2ccccc12,1.3898,219.071,328.7097384,0.666457285
ZIKJIM,COc1cc2cc3[nH]c4ccccc4c3cc2cc1OC,1.3803,222.185,333.3835607,0.666454577
BAZQEZ,CC(O)C(/N=C/c1c(O)ccc2ccccc12)C(=O)O,1.4039,215.287,323.0358567,0.666449236
PAYJUX,CN(C)c1ncn2c(C(=O)c3ccccc3)c(-c3ccccc3)nc2n1,1.3796,275.262,413.0355037,0.666436656
IXEREI,CC(=O)N1C(=O)C2(OC3C2OC2OC4(C(=O)N(C(C)=O)c5ccccc54)C23)c2ccccc21,1.4789,333.83,500.9213553,0.666431959
JINQEF,N#[N+][N-]CCC(=O)N1C2c3ccccc3C1C(O)C2O,1.4406,210.57,315.9665444,0.666431316
EACLEZ,CC12CC1C(=O)NC2=O,1.4108,98.091,147.188953,0.66642909
REQGAV,Cc1ccc(C(=O)c2cnc3ccccc3n2)cc1,1.3412,204.711,307.1775243,0.666425711
FAKCED,COc1nc(OC)[n-]c(=N[N+]#N)n1,1.4891,135.296,203.0225667,0.666408677
MABGAB,Cc1nnc2cc(-c3nc(C4CC4)no3)ccn12,1.4192,187.994,282.1058451,0.666395267
QIPFOM,O=C1OC2C3OC(=O)c4ccccc4N3CCN2c2ccccc21,1.478,241.16,361.8887346,0.66639267
KUSTUQ,CNc1[n-]c2ccccc2[n+](=O)c1C,1.3797,151.66,227.5880308,0.666379508
OJEQOJ,NC(=O)Nc1cccc2cccnc12,1.4001,147.856,221.8813066,0.666374298
YOYKAB,COc1ccc(C(=O)O/N=C/c2ccc(C)cc2)cc1,1.3484,220.843,331.4121063,0.666369743
OCIDUZ,COC(=O)c1cc2occc2[nH]1,1.4486,126.074,189.1962793,0.66636617
SIFWEK,COC(=O)/C=C(\ON1C(=O)c2ccccc2C1=O)C(=O)OC,1.4702,229.6,344.5598748,0.666357335
PANCOX,O=C(c1ccc(O)cc1)c1ncc(-c2ccc(O)cc2)[nH]1,1.4125,219.418,329.2805706,0.666355745
BETNUJ,O=c1nc2oc(-c3ccccc3)cn2c(=O)n1-c1ncc(-c2ccccc2)o1,1.4526,283.439,425.3653935,0.666342407
DESLET,CN1C(=O)CC(c2ccccc2O)=Nc2cccnc21,1.4069,210.07,315.265868,0.666326492
FUTRAP,COc1ccc(-c2ccnc(-c3ccc(OC)cc3C#N)n2)cc1,1.3674,256.608,385.1130161,0.666318689
SURCAL,COC(=O)c1cc(-c2nc3ccccc3[nH]2)n2ccccc12,1.4063,229.04,343.7402757,0.666317031