name,smiles,Density,Vint,Veff,pc
JEYYIW,O=C1NCCN1C(=O)Oc1ccccc1,1.4168,157.737,241.5290919,0.653076608
ZOWJEA,CN1c2cccc3cccc(c23)N(C)C12C(=O)c1ccccc1C2=O,1.368,260.118,398.3026519,0.653066202
FUHTAE01,Nc1cccc2c(O)cccc12,1.3297,129.732,198.6530857,0.653058066
XISPAR,N#Cc1ccc(C=C2c3ccccc3-c3ccccc32)o1,1.3161,221.725,339.519031,0.653056176
FOMSUY,O=c1oc2ccccc2cc1-c1nc(-c2ccccc2)n[nH]1,1.3901,225.524,345.3382931,0.653052397
PAZGUU,O=C(COc1cccc2cccnc12)NCCNC(=O)COc1cccc2cccnc12,1.3825,337.424,516.6947654,0.653043194
LIFWAB,CC(=O)OCCn1nnc2ccccc2c1=O,1.4005,180.477,276.3675234,0.653032592
WOBNIK,COc1cc(/C=N/N=C2c3cccnc3-c3ncccc32)ccc1O,1.37,261.297,400.1339041,0.653023894
YEFWUC,Oc1ccccc1/C=N/c1ccc(Cc2ccc(/N=C/c3ccccc3O)cc2)cc1,1.3176,334.283,511.902545,0.653020782
OPUTOL,COc1cc(OC)c(OC)cc1/C=C(\C#N)c1cccnc1,1.3312,241.218,369.3888093,0.653019241
QOFMII,Cc1ccc(C2NC(=O)NC(c3ccc(C)cc3)C23C(=O)NC(=O)NC3=O)cc1,1.4039,302.904,463.85193,0.653018734
GAFZIY,CN1C(=O)C2C(C1=O)C(c1ccccc1)N1C(=O)CCC21,1.3921,221.316,338.9147209,0.65301383
UTORUR,COc1cc(OC)c(/C=C/c2cnc(/C=C/c3c(OC)cc(OC)cc3OC)cn2)c(OC)c1,1.3566,371.049,568.2159661,0.653006994
SAYXUM,N#[N+][N-]CCOC(=O)c1cccc(C(=O)OCC[N-][N+]#N)n1,1.4224,232.585,356.1782132,0.65300176
UQEHIK,O=C1OC(=O)c2ccc(N3CCOCC3)c3cccc1c23,1.4296,214.723,328.8262806,0.652998293
FAJVIV01,Oc1ccccc1/C=N/CCc1c[nH]c2ccccc12,1.3209,216.827,332.0524435,0.652990226
LESYAL,COc1ccccc1C(=O)N/N=C/c1c(O)cc(O)cc1O,1.4125,231.908,355.1512247,0.65298381
XARKEG,CC(=O)c1nc2c3c(c(-c4ccccc4)cn3n1)C=CC=C2,1.3477,231,353.7641868,0.652977347
BITZAF,Cc1ncc(CO)c(CO)c1O,1.3816,132.69,203.2166381,0.652948505
RAHXUW,N#CCC[NH2+]C(CCN(CCC#N)CCC#N)C(=O)[O-],1.2923,232.542,356.1415496,0.652948246
SIGBEP,O=C(O)CCNC(=O)NCCC(=O)O,1.4535,152.236,233.1519206,0.652947656
QOQSUL,COc1ccc(OC)c2nc3c(cc12)CCc1ccccc1-3,1.3467,234.397,358.9839737,0.652945583
LEWXIX,CC(=O)c1cccc(N/C=C2\C(=O)C=Cc3ccccc32)c1,1.3275,236.14,361.6546357,0.652943379
VOKYID,CN(C)c1nc2c(=O)n(C)c(=O)n(C)c2o1,1.435,169.317,259.320847,0.652924753
MCBPCX,COC(=O)C1(C(N)=O)CC1,1.3742,112.868,172.8733216,0.652894264
WIXXAF,O=Cc1cn(Cc2ccccc2)c2cccc(-c3ccccc3)c12,1.3026,258.963,396.6406895,0.652890656
PEVJEG,c1cnc2c(c1)c1c(c3cccnc32)OCCOCCOCCO1,1.4031,251.997,385.9781388,0.652878945
VEJGAS,COc1ccc2c(c1)OC(C)(C)c1nc3ccncc3nc1-2,1.3778,230.647,353.2799668,0.652873137
RUCCOJ,O=C1CN(Cc2ccccc2)C(=O)C2(O)N1c1ccccc1C(O)C2(O)c1ccccc1,1.4039,332.185,508.80537,0.652872433
DESLOD,Cc1cc(O)cc(=O)n1-c1cccnc1N,1.3878,169.587,259.757574,0.65286643
MOTLAL,OCn1nccn1,1.4067,76.333,116.9199122,0.652865697
GISGAQ,COC(=O)/C=C1/C(=O)C=C2c3cc(OC)c(OC)cc3CCN21,1.3936,245.136,375.4827662,0.652855529
NIRVOZ,COc1ccccc1Nc1ccccc1C(=O)O,1.3583,194.02,297.1909708,0.652846214
HALQOC,O=C1NC(Cc2ccc(O)cc2)CO1,1.3915,150.423,230.4121503,0.652843176
NOGSEI,Cc1ncc(CO)c(/C=N/c2ccccc2N)c1O,1.3559,205.576,314.8960383,0.652837683
REBCUX,O=c1[nH]nc2n1CCCCC2,1.415,117.289,179.6619123,0.652831746
YOCXAP,O=C1CCCc2c1ccc1c3ccccc3nn21,1.3658,187.396,287.05469,0.652823335
BUTGUT,C=CCn1cc(C(=O)c2ccc(OC)cc2O)ccc1=O,1.362,226.924,347.6044341,0.652822512
NAGDAA,COC(=O)C1=COc2c(n(C)c3ccccc23)-c2ccccc21,1.368,241.777,370.3638042,0.652809474
BIHGUV,CN(N=O)C(=O)NC1C(O)OC(CO)C(O)C1O,1.5084,190.515,291.8391106,0.652808322
ISOXAR,COc1ccc(-c2ccnc3c(C(=O)Nc4ccccc4)cnn23)cc1,1.3647,273.357,418.7424615,0.652804588
RUCWAO,c1cc2cc(c1)Oc1cncc(n1)Oc1ccc(cc1)Oc1cncc(n1)O2,1.4426,279.603,428.313996,0.652799121
YUJDOW,CC1(C)OC2C3OC(C2O1)N1C(=O)NC(=O)CC12OC3OC2O,1.5648,227.287,348.1769934,0.652791553
ZUSDUO,COc1cc(C)c2c(c1)C(=O)C1(C#N)C(=C2O)C(=O)c2c(OC)cc(OC)cc2C1(C)C,1.3846,339.12,519.4952359,0.652787507
BEBJUO01,O=C1C(O)=CC=C/C1=C/NC(CO)(CO)CO,1.4049,186.027,284.9757239,0.652781919
TUQRAB,O=c1c2cc3ccccc3cc2n(-c2ccccc2)c2ccc3ccccc3c12,1.3385,300.567,460.4409131,0.652780827
SIVXIE,CC(=O)C1=C(O)C=C2Oc3c(C(N)=O)c(O)cc(O)c3C2(C)C1=O,1.4783,242.763,371.8957698,0.652771609
BEGQIP,COc1cc2c(cc1OC)Oc1cc3ccccc3n1C2,1.3814,220.583,337.9204315,0.652766094
FIDWUK,O=C1c2cccc(n2)C(=O)c2cccc(n2)C(=O)c2cccc(n2)C(=O)c2cccc1n2,1.4003,325.191,498.1750843,0.65276448
HINDOX,COc1cc2c(cc1OC)C(=O)C1(OC(=O)c3cc4c(cc31)OCO4)N(Cc1ccccc1)C2=O,1.4432,355.348,544.3793218,0.652758078
FOHHUI,N#C/C(=C\c1ccccc1)c1nc2c(-c3ccccc3)nc3ccccc3c2o1,1.3349,302.98,464.1588006,0.652750739
YOBXIY01,COc1ccc(N/C=C2\C(=O)C=Cc3ccccc32)c(OC)c1,1.3467,247.2,378.7071156,0.652747175
KONSIS,Oc1ccc2oc3ccc4c(c(-c5ccccc5)nn4-c4ccccc4)c3c2c1,1.3677,298.088,456.6694654,0.652743445
ZERLUD,CCc1cc(=O)nc(N)[nH]1,1.3626,110.631,169.4901053,0.652728369
AFUVOP,COC(=O)N1C(=O)n2c(nc3ccccc32)CN1c1ccc(C)cc1,1.3946,261.243,400.2327495,0.652727695
OPIKEE,O=C1Nc2cnnc(-c3ccccc3)c2C(c2ccccc2)N1,1.3671,239.534,366.9776121,0.652721017
TUPZUB,CCOC(=O)/C(C#N)=C(\CC(=O)c1ccc(OC)cc1)N1CCCCC1,1.3302,290.22,444.6413262,0.652705862
AWUNOV01,O=C(Nc1ccccn1)C(=O)Nc1ccccn1,1.3849,189.46,290.2727068,0.65269657
KUSJIR,COC(=O)c1c(C(=O)OC)c2c(-c3ccccc3)c3ccccc4ncc1n2c43,1.3865,300.269,460.0466918,0.652692445
XUKSAA,COC(=O)c1cn2c(c1C(=O)OC)c(C(=O)OC)c(C(=O)OC)c1ccccc12,1.4267,303.185,464.5250218,0.652677436
UNOHIO,N#Cc1ccc(OCc2ccccc2)cc1C#N,1.2918,196.391,300.9073441,0.652662701
HEVPED,NC(=O)CN1Cc2ccccc2OC1=O,1.4178,157.525,241.3587371,0.652659199
DIDGUS,COC(=O)C1=C2CCCCCC(=O)C1C(=O)N1CCc3cccc2c31,1.3762,267.089,409.2338357,0.6526562
BZAMID,NC(=O)c1ccccc1,1.3088,100.242,153.5912436,0.652654394
IMIRIH,N#Cc1cc(-c2ccccc2)oc1-c1ccccc1,1.2968,204.828,313.8391399,0.652652821
DAYXOR,O=C1c2ccccc2CC2c3cc4c(cc3CCN12)OCO4,1.4076,225.679,345.7874994,0.65265228
FOVVUH,O=c1onc(-c2ccccc2)n1-c1ccccc1,1.3673,188.709,289.1436132,0.652647997
IQEMAV,CCOc1ccc(N2C3=C(C(=O)c4ccccc4/C3=N\O)C3(O)C(=O)c4ccccc4C23O)cc1,1.4138,358.854,549.8516237,0.652637884
PIMDAT,O=C(Cc1ccccc1)N/N=C/c1ccccc1C(=O)O,1.3483,226.752,347.4419598,0.652632745
PELJOG,O=C([O-])C1C[NH2+]C1,1.3752,79.633,122.0184518,0.652630802
DEGFAX,N#[N+][N-]CCOC(=O)c1ccc(C(=O)OCC[N-][N+]#N)cc1,1.4055,234.48,359.28508,0.652629383
GIWWAN,COC(=O)C1c2c(c3ccccc3oc2=O)N2CCCC12,1.4174,217.99,334.0180889,0.652629325
LESQEH,Cn1c(=O)c(-c2ccccc2)c(O)c2ccccc21,1.347,202.023,309.5528882,0.65262838
ROCQIL,CC(C)(C)OC(=O)c1c2c(n3ccccc13)C(=O)c1ccccc1C2=O,1.3811,272.381,417.3632812,0.652623295
JEPJUK,COc1cc(-c2cc(C)nc(N)n2)cc(OC)c1OC,1.3627,218.803,335.2725339,0.652612361
SUVJAU,O=C(O)CC1CCN2C(=O)CCC12,1.3925,142.49,218.3400328,0.652605929
QIMQOV,Cc1ccc(NCN2C(=O)c3ccccc3C2=O)nc1,1.3695,211.363,323.8755383,0.652605631
BOBVAQ,COc1ccc(/C=C/C=C/c2ccncc2)cc1,1.2666,202.876,310.8746041,0.652597534
PASMIF,COC1=Nc2ccccc2C(=O)N2C(=O)CCC12,1.3998,188.966,289.5607986,0.652595244
TONWOK,COC(=O)c1cc2ccccc2c(-c2c(O)ccc3ccccc23)c1N,1.3618,273.05,418.4068679,0.652594451
VIZVAE,CCOC(=O)c1cc(C(=O)c2ccccc2)c(-c2ccccc2)[nH]1,1.3295,260.117,398.5950151,0.652584679
DMCHNQ,CC1C=CC(C)C2(C#N)C(=O)C=CC(=O)C12C#N,1.3212,196.922,301.7660088,0.652565214
BOHPET,Nn1c(CN2CC(=O)Nc3ccccc3C2=O)nc2ccccc2c1=O,1.4195,266.516,408.4145846,0.652562396
LOLCAR,[O-][n+]1cccc2ccc3ccc4ccc5c6ccccc6c6ccccc6c5c4c3c21,1.3566,315.628,483.6757792,0.652561103
DEHCIF,Nn1c(-c2ccccc2)cn2cccc2c1=O,1.3613,179.179,274.5793036,0.652558287
BUCSUQ,Cc1cc(C)n(C(=O)c2ccc(C(=O)n3nc(C)cc3C)cc2)n1,1.3408,260.353,398.9786886,0.652548638
GIVFOJ,COc1cccc2c1oc(=O)c1ncc(-c3ccccc3)cc12,1.3718,239.414,366.8978682,0.652535817
HUNZOG,CC(=O)Oc1c(C(=O)c2ccccc2)c(=O)oc2cc(N(C)C)ccc12,1.3785,275.998,422.9629184,0.652534745
MAVZOA,O=C(c1ccc2ccccc2c1)c1nc(-c2ccccc2)c(-c2ccccc2)o1,1.3332,304.892,467.2473127,0.652528097
ERUKEK,CCN1C(=O)c2c(n(-n3ccc4cccnc43)c(=O)c3ccccc23)C1=O,1.4093,275.342,421.9625373,0.652527122
HANLIU,O=C1C=CC(=O)c2c(-c3ccccc3)[nH]c(-c3ccccc3)c21,1.3358,242.621,371.8195391,0.652523535
BEHMOT,COC(=O)c1c(-c2ccccc2)cc2c(c1C(=O)OC)C=C1C=C(c3ccccc3)C(C#N)(C#N)C1C=C2,1.3341,404.612,620.074285,0.652521818
TUBFEE,CCOC(=O)c1c[nH]c2c(=O)n(C)c3ccccc3c12,1.3837,211.515,324.151763,0.652518432
WOMDIM,COc1ccc(/N=N/c2ccc(OC(=O)c3ccccc3)c3nc(C)ccc23)cc1,1.3536,317.917,487.2156253,0.652518071
AROYUC,CN(C)/C(N)=C(C#N)/C=C1\Nc2ccccc2C1=O,1.3337,206.455,316.4027093,0.652507055
NOHNAZ,C[N+](=O)C(=C=[N-])c1ccccc1,1.2969,133.732,204.9515911,0.652505303
WOZZOD,COc1cc(-c2cc(-c3cnccn3)nc(-c3cnccn3)c2)cc(OC)c1OC,1.3743,316.279,484.7178052,0.652501304
WUXFOK,O=C1Cc2cc3c(cc2C(c2ccccc2)=NN1)OCO3,1.4075,215.618,330.4503062,0.652497504
QUYJEC,COc1ccc(/C=N/NC(=O)c2cc(C)[nH]n2)cc1,1.3587,205.839,315.4634935,0.652497053
CATVAX,O=C(Nc1cccc2cccnc12)c1ccc(C(=O)Nc2cccc3cccnc23)cc1,1.3663,331.605,508.2106607,0.652495167
WEPBAX,CCOC(=O)/C(=C1/C(=O)N(Cc2ccccc2)c2ccccc21)N1C(=C(C#N)C#N)C=Cc2ccccc21,1.3459,401.057,614.6517259,0.652494711
OVADOH,CC1COC(c2cc3c(cn2)OC(C)(C)C=C3)=CC1=O,1.3526,217.186,332.8576613,0.652489113
NIVREP,Nc1ccn(C2OC(CO)CC2O)c(=O)n1,1.4641,168.059,257.568923,0.652481666
YULMAW,CCNC1=C(NC(C)=O)C(=O)c2ccccc2C1=O,1.3724,203.769,312.300783,0.65247675
EXURAQ,O=C1C2CCCN2C(=O)C2=CNCCN12,1.4318,156.719,240.1952435,0.652465043
SUMHOA,COc1ccc(OC)c(/C=N/n2c(C)nc3ccccc3c2=O)c1,1.3653,256.429,393.0159539,0.652464607
OKAQIC,O=C(OCc1ccccc1)c1ccc2c([nH]c3ccccc32)c1O,1.3698,250.82,384.4246489,0.652455561
CAHLUV,COc1cc(-c2ccc(C#N)cc2)ccc1C#N,1.289,196.755,301.560983,0.652455096
IPDXUR,CC(C)c1cn(C2CC(O)C(CO)O2)c(=O)[nH]c1=O,1.4236,205.579,315.0912348,0.652442776
MEYNUB,Cn1c(=O)c2c(nc(-c3ccn4c3-c3ccccc3C4)n2C)n(C)c1=O,1.4034,267.996,410.7579707,0.652442604
JUWTIH,COc1ccc(C2=NOC(=O)/C2=C\c2ccc3c(c2)Cc2ccccc2-3)cc1,1.348,295.056,452.2558401,0.652409485
CIJZEA,COc1ccc(C(=O)OC2=NN(C(=O)c3ccc(OC)cc3)C2)cc1,1.3832,266.385,408.3139774,0.652402354
NUGTIT,O=c1ccc2c(-c3ccccc3)cc(-c3ccccc3)c3c2n1Cc1nc2ccccc2nc1CO3,1.376,367.809,563.78743,0.652389501
ROYPAY,COC(=O)C12C(=C(O)C(=O)N1c1ccc(OC)cc1)C(=O)CC(c1ccccc1)C21C(=O)c2ccccc2C1=O,1.4091,412.967,633.012997,0.652383129
EHAXOC,COc1ccccc1C1CC(O)ON1C(=O)OCc1ccccc1,1.3806,258.263,395.8765548,0.65238266
SEWPOA,Cc1cc2oc(-c3ccccc3)cc(=O)n2n1,1.3786,177.652,272.3189193,0.652367454
JEXPEH,CC(=O)C1(C)C2c3nnnn3-c3ccccc3N21,1.3968,186.987,286.6298793,0.652363949
VALDIV,c1ccc(Oc2nc(Oc3ccccc3)nc(Oc3ccccc3)n2)cc1,1.3718,282.012,432.2926764,0.652363585
UTIZAA,C=C1C(=O)OC(c2nc(C(=O)OC)cc3c2[nH]c2ccccc23)C1c1ccccc1,1.3775,313.1,479.9485493,0.652361593
AXAHAJ,c1ccc2oc(C(=C(c3nc4ccccc4o3)c3nc4ccccc4o3)c3nc4ccccc4o3)nc2c1,1.4103,381.088,584.1680122,0.652360266
YIRFAH,C/C(=N\NC(=O)c1cccnc1)c1ccccn1,1.3365,194.614,298.3254059,0.652354765
SETFUS,COC(=O)/C=C/C(=O)N1CC(=O)N(C(=O)/C=C/C(=O)OC)CC1=O,1.436,255.037,390.9522079,0.652348279
QOPFAC,Oc1ccccc1-c1nc(-c2ccccc2O)n(-c2ccccc2)n1,1.3726,259.745,398.1718914,0.652343889
ILIYOU,COC(=O)c1c(-c2cc3ccccc3c3ccccc23)nc(=O)[nH]c1C,1.3666,272.772,418.1466289,0.652335763
MUJGIJ,COC(=O)c1cn(C#Cc2ccccc2)c2ccccc12,1.3167,226.323,346.944741,0.652331548
UTORAX,COc1ccc(/C=C/c2cnc(/C=C/c3ccc(OC)c(OC)c3)cn2)cc1OC,1.3304,329.093,504.4878926,0.652330819
HUFSAD,Cc1oncc1C(=O)N/N=C/c1ccccc1,1.358,182.737,280.1316357,0.652325467
VOJWAU,C=CC(=O)NC(Cc1c[nH]c2ccccc12)C(=O)O,1.3632,205.096,314.4084467,0.652323442
BEQCEH,CCOC(=O)c1c2c(c3n1CCc1ccccc1-3)C(=O)N(c1ccccc1)C2=O,1.3892,301.084,461.5619973,0.652315402
VINZUP,O=C(Nc1ccccc1)Nc1cccc2cnccc12,1.3483,211.381,324.0477598,0.652314338
FADFIZ,c1ccc2c(c1)N1COOCN2COOC1,1.4558,166.733,255.6029408,0.652312526
SEQRIR,c1ccc(-c2nnc(-c3cccc(-c4nnc(-c5ccccc5)o4)c3)o2)cc1,1.3687,289.749,444.1916042,0.652306341
ASESAV,CN1C(=O)C(C(N)=O)C(c2ccccc2)c2ccccc21,1.3538,224.132,343.6026206,0.652300031
MARAFC,COC1C(CO)OC(n2ccc(N)nc2=O)C1O,1.4589,190.893,292.6466542,0.65229859
XETNAO,COc1ccc(-n2cc(-c3ccc(C)cc3)c3c2C(=O)c2ccccc2C3=O)cc1,1.3451,316.589,485.3486439,0.652291922
ZAXBEI,NC(=O)c1ncn(-c2ccccc2)c1N,1.3752,159.174,244.0249538,0.65228575
ABAKEV02,O=Cc1ccc2ccccc2n1,1.3241,128.476,196.9653497,0.652277165
CURMAG,OCc1cc(-c2ccccn2)nnc1-c1ccccn1,1.3526,211.494,324.2394684,0.652277161
HIHCUX,NC(=O)c1ccc(C(=O)c2ccccc2)cc1,1.3273,183.678,281.5988487,0.652268292
IBATOV,Cc1cc(=O)[nH]c2c1CCC2,1.3151,122.788,188.251081,0.652256547
TAXPAL,O=c1c2ccccc2ncn1Cc1ccccc1,1.3407,190.738,292.4288026,0.652254492
HORBEX,O=C1/C=C/c2cccc(n2)/C=C/C(=O)c2cccc(c2)OCCCOc2cccc1c2,1.3396,332.43,509.6676655,0.652248558
QADROE,CC1=CC(=O)/C(=C(/C)Nc2ccc(/N=C/c3ccccc3O)cc2)C(=O)O1,1.3677,286.775,439.6779459,0.652238764
DEBGEX,O=C(NCCCCNC(=O)c1ccncc1)c1ccncc1,1.3394,241.092,369.6403058,0.652234067
SOLPEP,COC(=O)c1c[nH]nn1,1.4344,95.925,147.0716646,0.652233047
YAVKUB,Cc1cn(C2CC3(O)CCC(O)C3O2)c(=O)[nH]c1=O,1.4548,199.604,306.032921,0.652230483
AFIKAC,O/N=C(/CN(C/C(=N/O)c1ccco1)c1ccccc1)c1ccco1,1.3802,266.12,408.0175606,0.65222683
NODKUM,CN1C(=O)c2c(c3c(ncn3C)c3c2c2ccccc2n3C(=O)OC(C)(C)C)C1=O,1.4033,311.924,478.2504986,0.652218871
XEQYUO,CC(C)(O)CCC1(O)C(=O)c2ccccc2-c2[n-]cc[n+](=O)c21,1.383,246.002,377.1791228,0.652215314
NUNNAO,O=C1C=Cc2ccccc2/C1=C/Nc1ncccn1,1.3511,199.675,306.1499563,0.652213061
LAWHUM,CCn1c(C)cc(=O)c(C(=O)O)c1C,1.3542,156.028,239.2303172,0.652208306
KUNHOT,Cc1cc(C(=O)N/N=C/c2ccccn2)n[nH]1,1.3664,181.588,278.423167,0.652201474
UCOLAZ,O=C1NC(C(O)c2ccccc2)CO1,1.3891,150.534,230.8102419,0.652198095
INOGUP,COC(=O)Cn1nnnc1-c1cc(CCCc2ccnc(-c3nnnn3CC(=O)OC)c2)ccn1,1.4111,367.005,562.7311609,0.652185316
PAPBOA,CCOC(=O)/C(C(=O)c1ccc(OC)cc1)=C1\OC(N)=NC1=O,1.4166,243.179,372.87326,0.652176024
OGEPIB,COC(=O)C1=CC(=O)C=CC12N=CC(=O)N2C,1.4144,179.222,274.8068246,0.652174488
SOXHOD,COc1cccc(C(C#N)CC#N)c1,1.2681,158.917,243.6742425,0.652169874
PUYMIH,COC(=O)c1c(C(=O)OC)c2ccccn2c1-c1ccc2ccccc2n1,1.3786,282.879,433.7736386,0.652135065
ECAKOL,Oc1c(-c2ccccc2)cc(-c2ccccn2)nc1-c1ccccn1,1.3375,263.24,403.6611462,0.652131132
PPRDOX01,C/C(=N\O)C(=O)c1ccccc1,1.3163,134.153,205.7152346,0.652129631
KICFOU,O=C(Nc1ccccc1C1=Nc2ccccc2C1=O)c1ccccc1,1.3471,262.153,401.9975051,0.652125938
PYEIDO,O=C1C2C3C=CC(O3)C2C(=O)N1n1cccc1,1.4328,173.886,266.647695,0.652118894
CONYIN10,O=C(NC(=O)c1ccccc1O)c1ccccc1,1.3632,191.506,293.6673321,0.65211884
CISSOP,O=C(COC(=O)c1cccnc1)c1ccc(-c2ccccc2)cc1,1.3407,256.129,392.7686164,0.652111674
AMUYIS,CCOC(=O)c1cc2c(c(N)c1C(=O)OCC)c(=O)oc1ccccc12,1.4138,271.99,417.0945948,0.652106269
ABEGOE,CCOC(=O)Cn1c(=O)c2c(ncn2C)n(C)c1=O,1.4303,201.465,308.9478845,0.652100274
YINPAP,CC(=O)N=C(NC(C)=O)NC(C)=O,1.3766,145.589,223.2630514,0.652096257
PIKWUB,CC1=C(c2ccccc2)C2(CC1=O)C(=O)Nc1ccccc12,1.341,233.459,358.0138172,0.652094944
LAPQUQ,O=C(O)Cc1ccc(/N=C/c2ccccn2)cc1,1.335,194.743,298.6466299,0.652085042
VASTIS,CO/C=C1\C=C(OC(C)=O)C(OC)=C1C#N,1.3509,177.201,271.7498425,0.652073975
MOLQIO,CCOC1=CC=C/C(=C/Nc2ccccc2O)C1=O,1.3446,207.05,317.5285468,0.652067356
XAMRUY,O=C1OCCCn2cc3c(n2)CCC1C3,1.3988,159.548,244.6803255,0.65206714
BUHLEW,CN(C)/C(Nc1ccccc1)=C1/C(=O)ON=C1c1ccccc1,1.3435,247.533,379.6230195,0.6520495
XAZDEJ02,O=C1Nc2ccccc2/C1=C\c1ccccc1,1.3164,181.85,278.891064,0.652046707
CIKGAE,CC1=C/C(=N\N=C(N)N)C=CC1=O,1.3589,141.898,217.6236048,0.652034048
NODNUQ,C=Cc1nc2ccccc2c(C#N)c1-c1c(O)cc(C(=O)OC)n1C,1.3444,268.284,411.4584153,0.65203187
AGESEK,OCC12COC(C(c3cnco3)O1)C2O,1.4876,155.077,237.8419048,0.652017146
BANTOA,CC(=O)Oc1ccccc1C(=O)ON1C(=O)CCC1=O,1.4404,208.263,319.413755,0.652016379
NIRLEG,O=C1c2ccccc2C(=O)N1C1C2C=CC(C3CC31)N(c1ccccc1)O2,1.381,280.78,430.6398056,0.652006611
MIXTCA,CON1OC(C(N)=O)(C(N)=O)CC1(C(N)=O)C(N)=O,1.5029,198.178,303.9515469,0.652005236
GINBEL,COc1cccc(/C=N/c2cc(C)ccn2)c1O,1.3317,196.838,301.9001571,0.651997011
SIGBIT,O=C(O)CCCNC(=O)NCCCC(=O)O,1.4098,178.254,273.3970019,0.651996908
YUFJUE,COC(=O)/C(=C/c1ccccc1)N1C(=O)c2ccccc2C1=O,1.3825,240.49,368.8567456,0.651987534
YARQOY,COC(=O)C1OC2(C(=O)OC)C3C(=O)N(c4ccccc4)C(=O)C3C(C(=O)OC)N2C1C(=O)OC,1.4577,364.03,558.343411,0.651982262
TUKSUP,COC(=O)c1ccc(-c2ccccc2)c2c1c(=O)n(C)c1ccccc21,1.3532,274.527,421.0659714,0.651980969
HAMJIQ,COc1ncc2c(n1)-c1ccccc1O/C2=C\c1ccccc1,1.3612,240.29,368.5545396,0.651979488
NECDUW,COc1c(O)cccc1/C=C/C#N,1.3018,145.595,223.3139986,0.651974354
MEBZAX,Cc1ccc(-n2nc3c(=O)n(C)c(=O)n(C)c3n2)cc1,1.4064,208.701,320.1081906,0.651970197
QOHNOS,O=C(N/N=C/c1ccc(-n2ccnc2)cc1)c1ccccc1,1.3364,235.031,360.4967775,0.651964219
EXULIS,COc1ccc(C(=O)C([N-][N+]#N)C(O)C(=O)c2ccccc2)cc1,1.365,257.857,395.5102188,0.651960399
ISOCUQ,COC1=CC2C(C)(O)c3ccccc3N3C(=O)COC23C=C1,1.3986,231.538,355.1491691,0.651945774
DOJBIN,OCC1OC(C2NCCc3c2[nH]c2ccccc32)C(O)C1O,1.4099,233.538,358.2230762,0.65193455
FETWAD,COc1ccc(C(=O)CCn2cncn2)cc1,1.3474,185.682,284.8196154,0.651928414
VUKHUF,O=C(Nc1ccccc1)Nc1cccc2ncccc12,1.3466,211.52,324.4568503,0.651920278
GAHHIG,Nc1ncnc2c1ncn2C1CCC(CO)O1,1.4341,177.478,272.2394248,0.651918803
GOZNEO,N#Cc1ncn(OCc2ccccc2)c(=N)c1N,1.3617,191.676,294.0182238,0.651918774
MULMEN,Cc1ccc(O)c(/C=N/c2cccc(/N=C/c3cc(C)ccc3O)c2)c1,1.3136,283.626,435.0636455,0.65191841
SUCVER01,Nc1ccc(Oc2ccc(N)cc2)cc1,1.3293,162.956,249.964414,0.651916796
PECVAU,Cc1cc(C)n2cnc(C(N)=O)c2n1,1.3753,149.625,229.5178627,0.651910044
YIZRAA,COC(=O)c1nc2c(ncn2Cc2ccccc2)c(=O)[nH]1,1.4167,217.086,333.0002226,0.651909474
KAXJID,COC1(c2ccccc2)[N-]C(c2ccccc2)=C(c2ccccc2)[N+]1=O,1.3235,279.848,429.2802541,0.651900471
LUTPOF,COC(=O)c1c(-c2ccccc2)c2c(=O)oc3ccccc3c2n1C,1.3814,261.036,400.4242358,0.651898603
LIVREO,COc1cc(/C=C(\NC(C)=O)C(=O)O)ccc1O,1.3916,195.317,299.6136864,0.651896121
OFUCOK,COc1ccc(C(=O)NN2CC(=O)N(NC(=O)c3ccc(OC)cc3)CC2=O)cc1,1.4167,314.925,483.0922814,0.651894083
GEPPAS,COC(=O)C1=C2C(=C(c3ccc(OC)cc3)C1)CCN2C,1.3551,227.782,349.418981,0.651887884
IDUQOO02,CCN(CC)c1ccc2cc(C(=O)O)c(=O)oc2c1,1.3804,204.755,314.0994199,0.651879587
JUGNUU,CCOC(=O)c1cc(O)c(C=O)c(-c2ccccc2)n1,1.3616,215.519,330.6131395,0.651876693
YUSZAQ,N#CC(C#N)=C1c2ccccc2Oc2cc(N(c3ccccc3)c3ccccc3)ccc21,1.3225,336.528,516.2452715,0.651876189
ZISPUO,COc1ccc(O)c(/C=N/N=C/c2cc(OC)ccc2O)c1,1.3694,237.236,363.9289748,0.651874449
GEWGOE,COC(=O)c1c(-c2ccccc2)cc2nccn2c1C(=O)OC,1.3861,242.175,371.5059157,0.651873873
NIFXEF,CC(=O)N1C(=O)C(=O)OCC1c1ccccc1,1.3969,180.609,277.0664059,0.651861778
HEGBIH,Cc1ccc(C2=N/C(=C\c3ccco3)C(=O)O2)cc1,1.3623,201.09,308.4889577,0.651854775
ROXWEI,CC(=O)OCC(Cn1cnc2c1c(=O)n(C)c(=O)n2C)OC(C)=O,1.4347,255.109,391.3615714,0.651849897
TIMSEP,COc1cccn2nc3ccccc3c12,1.3535,158.413,243.0221699,0.651845879
ZEVTID,COc1cccc(C(=O)NC2C(O)C(CO)OC2n2cnc3c(N)ncnc32)c1,1.4395,300.892,461.6104822,0.651830952
TOJQAM,O=C1C2COC(c3ccccc3)N2C(=O)C23C=CC(O2)C(O)c2ccccc2N13,1.4328,294.723,452.146763,0.651830388
RAFWAX,CC(=O)Nc1cccnc1-c1ncccc1NC(C)=O,1.3641,214.334,328.8229959,0.651821809
OPIJIH,COc1nc(-c2cc(CO)on2)nc(N(C)C)n1,1.4185,191.606,293.9582054,0.651813749
HIMSEE,O=C(Cc1cccc2ccc[n+]([O-])c12)c1ccccc1,1.3357,213.202,327.0906195,0.651813251
INIDIU,O=C(CC(=O)c1ccccn1)c1ccccc1,1.3254,183.808,282.0025289,0.651795573
NULXAV,CC(=O)c1ccc(-c2ccoc2C(=O)Nc2cccc3cccnc23)cc1,1.3545,284.568,436.5938597,0.651791118
CUCMAP,Cc1nn(-c2ccccn2)c2c1C(=O)C1(N=NC3C(=O)OC(=O)C31)C(C)(C)C2,1.4284,287.279,440.7589236,0.651782606
BENDEG,CN(C)c1ccc(/C=C(\C#N)C(=O)O)cc1,1.3135,178.061,273.1928822,0.651777596
GIFYEC,c1ccc(Oc2nc(-c3ccccc3)no2)cc1,1.3597,189.504,290.7597722,0.651754535
JUCTUY,O=c1cc(CN2CCOCC2)c2c(ccc3ccccc32)o1,1.3728,232.67,356.9913115,0.651752557
ASAQIX,COC(=O)C1C(=O)n2ccc3cccc(c32)-c2ccc(C(C)=O)cc21,1.3799,261.261,400.8595111,0.65175203
VABGUE,CC(=O)/C(C=O)=N/Nc1ccccc1,1.3289,154.802,237.5176931,0.651749341
NUQMAO,COc1ccc(C(=O)NNC(=O)c2ccccn2)cc1,1.3771,213.059,326.9054571,0.651745009
HODFOW,Nc1ccc(-c2nc3ccccc3o2)cc1,1.3538,167.946,257.6877729,0.651742215
DUBNET,Cn1c(=O)n2n(c1=O)C1C=CC2C1,1.441,134.492,206.358621,0.651739188
ZAVJEO,O=c1[nH]c2ccccc2nc1/C(=N\Nc1ccccc1)c1ccccc1,1.35,272.677,418.3880607,0.651732269
UZEQOH,O=C(c1ccccc1)c1nnn2c1-c1ccccc1C2,1.3545,208.615,320.093323,0.651731808
PEVBEZ,CCn1c(-c2ccccn2)nc2c1c(=O)n(C)c(=O)n2CC,1.3812,234.394,359.6502578,0.651727602
COSJUS,N#CC(C#N)=C(c1ccccc1)c1c(C#N)c(=O)oc2ccc3ccccc3c12,1.3327,302.972,464.8796888,0.651721311
PIZHAK,COc1ccc(NC(=O)c2ccc3ccccc3n2)c2ccccc12,1.3435,264.315,405.5660794,0.651718705
NUDPIM,O=C1C=C(N2CCN(c3ccccc3)CC2)C(=O)c2c(O)cccc21,1.3723,263.508,404.3278959,0.651718575
MIXWUM,CCOc1cccc(/C=N/NC(=O)c2cc3ccccc3cc2O)c1O,1.3716,276.263,423.8993341,0.65171841