name,smiles,Density,Vint,Veff,pc
HRFPZO10,O=c1cc(O)cnn1C1OC(CO)C(O)C1O,1.5,176.815,270.2012478,0.654382618
KUPZAZ,Cc1ccc(N2C(=O)c3ccc4c(c3C2=O)C(C)CO4)cc1,1.3719,232.164,354.785687,0.654378146
ZERCAC,CC1C(=O)N(Cc2ccccc2)C(=O)c2nc3cccnc3n21,1.3971,238.091,363.8458583,0.654373259
SOFLEF,O=[n+]1c(Cc2ccccc2)c([O-])on1Cc1ccccc1,1.364,224.737,343.4428112,0.654365131
VUKJER01,O=C(Nc1ccccc1)Nc1cccc2cccnc12,1.3472,212.215,324.3123475,0.654353748
NEGTUO02,O=C(NCCc1ccccn1)C(=O)NCCc1ccccn1,1.3395,241.855,369.6127105,0.654347086
FUZQOH,O=c1[nH]c(CO)cc2c1[nH]c1ccccc12,1.4066,165.372,252.7311691,0.654339552
FECDEY,Oc1ccccc1-c1cc(-c2ccccc2)c2ccccc2n1,1.3255,243.564,372.2291766,0.654338819
HAMVIB,N#Cc1ccc(Oc2cccc(Oc3ccc(C#N)c(C#N)c3)c2)cc1C#N,1.3313,295.52,451.6417574,0.654323909
HAVCOX,O=C1CCCC2=C1C(c1ccc3c(c1)OCO3)C1=C(CCCC1=O)N2O,1.4304,268.231,409.9563559,0.6542916
EXUFAE,CC#Cc1cn(C2CC(O)C(CO)O2)c2nc(N)[nH]c(=O)c12,1.4283,231.342,353.5790434,0.654286515
CIPGIR,O=c1ccc2ccccc2n1-c1ccccc1,1.3271,181.003,276.6424509,0.654284978
DOLFAL,COC(=O)c1cc2cnc1CCc1cnc(c(C(=O)OC)c1)CC2,1.3875,255.379,390.317785,0.654284816
EVOCOI,CC(C)Cn1cnc2c(Nc3cccc(C(=O)O)c3)nc3ccccc3c21,1.3577,288.218,440.5092539,0.654283644
OBUQAG,COC(=O)/C=C/c1cccc2c1cc(/C=C/C(=O)OC)n2C,1.3432,241.951,369.7972214,0.6542802
HAVJIX,Nc1ccccc1-c1ccc(=O)[nH]n1,1.3669,148.696,227.2704789,0.654268873
AJOZUW,CC(=O)OCCCNC(=O)c1c(O)c2ccccc2n(CCC(=O)O)c1=O,1.4228,287.215,438.9911307,0.65426151
MOJMEE,COC(=O)C1=C(C)C(=[N+]=[N-])C(=O)CC1,1.3751,153.33,234.3620227,0.654244225
UZALIS,N#[N+][N-]C1OC2CC(=O)OC2C(O)C1c1ccccc1,1.4339,208.43,318.5825093,0.654241818
JEPJIY,COC(O)(c1ccccn1)C(O)(OC)c1ccccn1,1.3873,216.23,330.5052535,0.654240735
MEHLER,COc1cccc(/N=N/c2cc(C=O)c(O)c(OC)c2)c1,1.3802,225.2,344.2181929,0.654236193
OJIRUX,Cc1cc2nc3c(nc2cc1C)-c1ccccc1C3=O,1.3476,209.686,320.5058589,0.65423453
VIMMOU,C/C(=N\O)c1c(O)cc(C)n(C)c1=O,1.3883,153.447,234.5446993,0.654233502
AWEMOF,COc1ccc(-c2nocc2C(=O)c2cnn(-c3ccccc3)n2)cc1,1.387,271.1,414.3796711,0.654230936
UMEVAJ,OCCNc1nc(NCCO)nc(Nc2ccccc2)n1,1.3853,227.548,347.8103191,0.654230158
FIQSEF,Nc1nc(=O)n(C2CC(O)C(CO)O2)cc1CO,1.4676,190.322,290.9118314,0.654225712
QALDIS,COc1ccc(/N=c2\oc3ccccc3nc2Nc2ccc(OC)cc2)cc1,1.3674,296.463,453.1524575,0.654223529
AFAGAQ,CCOC(=O)c1cc(-c2ccncc2)nc2ccccc12,1.3446,224.699,343.4642566,0.654213636
FESKUJ,O=C1CCN(c2ccccc2)N1,1.3425,131.156,200.4833572,0.654198941
TETZUP,Cc1ccc2occ(C(c3ccc[nH]3)c3ccc[nH]3)c(=O)c2c1,1.3484,245.019,374.53547,0.654194381
ZEZDUF,O=Cc1c2n(c3ccccc13)CCc1c-2[nH]c2ccccc12,1.3687,227.089,347.1288698,0.654192203
GASYAC,COc1ccccc1NC(=O)C1C(c2ccccc2)Nc2c(C#N)cnn2C1(C)O,1.3828,316.727,484.1588576,0.654179914
ZODXEV,C#CC1CC(n2ccc(=O)[nH]c2=O)OC1C#C,1.3679,182.71,279.2987919,0.654173972
PACJUC,N#Cc1cc(C#N)cc(C(=O)n2c3ccccc3c3ccccc32)c1,1.3417,259.973,397.4080689,0.654171418
PUJYEZ,CC(C)=C1CC(=O)N(/C=C/C(=O)O)C1=O,1.3835,164.159,250.9430157,0.654168435
LEPMID,O=c1n(CCO)c(=O)n(CCO)c(=O)n1CCO,1.4775,191.967,293.4525612,0.654167063
WOZZIX,COc1ccc(-c2cc(-c3cnccn3)nc(-c3cnccn3)c2)c(OC)c1OC,1.3774,316.371,483.626891,0.654163376
BZANPC10,O=C(O)c1ccc(/N=C/c2ccccc2)cc1,1.3223,184.907,282.6636556,0.654159091
GUHCUH,COc1ccc(N2C(=O)c3ccccc3/C2=C/c2ccccc2)cc1,1.3288,267.426,408.8089385,0.654158887
QIQSAM,Cc1ccc(-c2nnc(-c3ccc(C)c(-c4cccnc4)c3)o2)cc1-c1cccnc1,1.335,328.868,502.7372726,0.6541548
BAJMAA,COc1ccc2c(c1OC)C1CC(=O)CC3(c4cc5c(cc4CCN13)OCO5)C2O,1.4373,309.23,472.7187809,0.654152136
PEQKUU,CC(=O)N1C=Nc2ccccc2C12OC(C)c1ccc3ccccc3c12,1.3588,273.515,418.1280661,0.65414169
CODHAH,COc1ccc2c3c(cccc13)C1(Nc3ccccc3-n3c1c(C)c1ccccc13)C2=O,1.3739,329.028,502.9935256,0.654139633
FOMJEX01,CN1C(=O)C(=Cc2ccc(N(C)C)cc2)C(=O)N(C)C1=O,1.3679,228.01,348.5657445,0.654137716
YAKMUV,CNC1=CC(=O)C(=O)c2cc(C)c(C)nc21,1.352,173.615,265.4133511,0.65413062
YUTFEY,Cn1c2c(c(=O)n(C)c1=O)C1Nc3c(ccc4ccccc34)C3C=CCC(=O)C(C2)C31,1.3962,321.45,491.4171661,0.654128553
MEDPUJ,Cc1ccccc1-c1ncc(C#N)o1,1.3264,150.737,230.440379,0.654125812
VOXLUS,COc1ccc(C(=O)/C=C2\Nc3ccccc3N(C)C2=O)cc1,1.3678,244.691,374.0733901,0.654125651
ODACIF,c1cc(-c2nnc(-c3ccncc3)o2)ccn1,1.3777,176.666,270.0808072,0.654122749
EJUXIR,CC(=O)NC1=CC(=O)c2ccc(C)nc2C1=O,1.3902,179.762,274.8185999,0.654111476
PUHCIH,CN1C(=O)c2cccc3c2C(c2ccccc2)(Cc2ccccc2-3)C1=O,1.3594,270.975,414.2654975,0.654109506
ZIVHAN,COC(=O)c1cc(N)nc(OC)c1C(=O)OC,1.4328,182.002,278.2439395,0.654109485
OCIHAJ,COC(=O)c1cc2cc(C=O)oc2n1Cc1ccccc1,1.3835,222.255,339.7831954,0.654108276
AHXGLP,NC1C(O)C2COC(O2)C1O,1.4978,116.807,178.5758193,0.654103117
FOMWUZ,Nc1ncnc2c1ccn2C1OC(CO)CC1O,1.4439,188.146,287.6424987,0.654096668
KAHFOQ,N#CC1=C(N)OC(c2c[nH]c3ccccc23)=C(C#N)C1c1cccc2ccccc12,1.3479,312.772,478.1754448,0.65409465
INUBAW,O=C(c1ccccc1)c1cccc2ccc[n+]([O-])c12,1.3506,200.316,306.249483,0.654094165
QAVYAO,CC(=O)Nc1ccc(C2=NOC(C(=O)Nc3ccccc3)C2)cc1,1.3724,255.739,390.9827178,0.65409285
TECNUL,N#[N+][N-]CCOC(=O)c1cc(C(=O)OCC[N-][N+]#N)cc(C(=O)OCC[N-][N+]#N)c1,1.4344,315.852,482.8920714,0.654084046
ZUKSAB,COC(=O)C1OC12C(=O)N(C)c1ccccc12,1.411,179.412,274.2977054,0.654077655
FICLAG01,COc1ccccc1NC(=O)c1ccccc1C(=O)O,1.3807,213.252,326.0395819,0.654067824
QACLUE,CC(=O)OCC1OC(n2cnc3c(N)ncnc32)C1O,1.4636,207.119,316.6630701,0.654067428
PIZNIV,CNC1CC(n2cc(C)c(=O)[nH]c2=O)OC1CO,1.4197,195.177,298.4119442,0.654052238
YELGII,O=Cc1cc2cc3c4c(c2oc1=O)CCCN4CCC3,1.4037,208.221,318.3558339,0.654051152
MUCCAP,O=C(Nc1ccccc1)C1=NNC(C(=O)c2ccccc2)C1c1ccccc1,1.3394,299.34,457.672626,0.654048294
LAPGUG,OCc1ncccc1O,1.3707,99.083,151.4949842,0.654034855
ANOVAB,N#CC1=Cc2c(oc3ccccc3c2=O)C(c2ccccc2)c2ccccc21,1.3443,291.749,446.0758229,0.65403455
LEZJUV,COC(=O)/N=C(\NC(=O)OC)Nc1ccccc1,1.4059,193.972,296.579458,0.654030462
YUZNAL,C=CC1=C(C)C(=O)N/C1=C/C(N)=O,1.3377,144.576,221.0585798,0.654016687
HUKKEG,C=C(C(=O)OC)C1NC(=O)c2ccccc21,1.3675,172.398,263.5999321,0.654013826
JAWWEM,O=C1NC2(CCCCC2)c2nnnn2C1c1ccccc1,1.3828,222.378,340.0258756,0.654003168
XEPBAW,COC(=O)c1cc(C(N)=O)ccc1OC,1.393,162.995,249.2316312,0.653990022
DUPBOG,CC1[NH2+]C(C(=O)[O-])Cc2c1[nH]c1ccccc21,1.3811,180.938,276.6731152,0.653977528
ENIJEQ,COC(=O)c1nc(N)n(C)n1,1.43,118.521,181.2315267,0.65397562
SUWGAS,N#Cc1c(/N=C/c2ccccc2O)oc(-c2ccco2)c1-c1ccco1,1.3853,269.734,412.4585008,0.653966398
MITSUG,Cc1ccc(-c2cnc(N)nc2-c2ccccc2O)cc1,1.3422,224.213,342.8609619,0.653947299
FADWEP,Cc1cc(-c2ncc[nH]2)c(=O)[nH]n1,1.3973,136.835,209.2474972,0.653938526
GOWLOW,O=C1NCCc2c3n(c4ccccc24)C(=O)CCC13,1.3995,197.171,301.5131398,0.653938333
MUKXEV,NC(=O)N/N=C/c1cccnc1,1.3663,130.402,199.4103257,0.653938052
WACNIZ,CN(C)c1ccc2c(c1)C(=O)c1ccccc1C2=O,1.3442,202.849,310.197694,0.653934584
LOFSEE,CN/C=C1/C=CC=C(O)C1=O,1.3449,121.974,186.5237292,0.653932883
VILLOT,CN1C(=O)CC(c2c[nH]c3ccccc23)C1=O,1.3774,179.822,274.9862428,0.653930896
WEMXUI,O=C(N/N=C/c1c(O)ccc2ccccc12)c1cccc(C(=O)N/N=C/c2c(O)ccc3ccccc23)c1,1.3803,395.064,604.139472,0.653928469
NOQLIQ,O=C1c2ccccc2CN1c1ccc(-c2ccccc2)cc1,1.3226,234.092,357.9786584,0.653927251
XUMZOX,COC(=O)c1ccccc1C(=O)c1c2c(c3n1CCC3)C(=O)c1ccccc1C2=O,1.3966,310.324,474.5547637,0.653926636
PESVOZ,COc1ccc(C=C2[C@H]3C=C[C@@H]2[C@@H]2C(=O)NC(=O)[C@H]32)cc1,1.3765,221.758,339.1233447,0.653915466
DEKKUA,COc1cccc(-c2ccc(-c3ccc(-c4cccc(OC)c4)cn3)nc2)c1,1.3216,302.491,462.5862627,0.653912631
RFMPPM10,COc1ncnc2c1cnn2C1OC(CO)C(O)C1O,1.4826,206.613,315.9647338,0.653911585
ZUXRIW,COc1cc(/C=C/C(=O)N2CCC=CC2=O)cc(O)c1O,1.3956,224.936,343.9891046,0.653904432
PEDDEI,O=C(Nc1ccccn1)c1ccncc1,1.354,159.649,244.153041,0.65388905
HUMQOV,COC(=O)c1cc(C(=O)c2ccccc2)n2c(OC)ccc(O)c12,1.3952,253.013,386.9357758,0.653888877
NODMOJ,O=C1CC2C(N1)c1ccccc1N1C(=O)CCC21,1.3838,189.975,290.5336316,0.653882991
SUZSEN,COC(=O)c1c2c(=O)oc3ccccc3c2cn1Cc1ccccc1,1.3905,260.117,397.8036961,0.653882814
EXOQIS,Nc1cccnc1Nc1ccc(O)cc1,1.3569,160.919,246.0980219,0.653881729
OWAMAC,O=C(Nc1ccccc1/N=N/c1ccccc1)c1ccccc1,1.3222,247.291,378.1896709,0.653880894
WIPLAK,O=C(c1ccccc1)c1c2nc3ccccc3cc2cc2c1[nH]c1ccccc12,1.3568,297.807,455.4487563,0.653875976
ETIFUI,N#Cc1cc2c(cc1C#N)N(c1ccccc1)CCO2,1.337,212.038,324.2830261,0.653867094
CIFQIS,COC(=O)/C1=C/c2ccccc2NC2=C(C1)C(=O)CC2,1.37,213.281,326.1869226,0.653861284
BICINE,O=C([O-])C[NH+](CCO)CCO,1.382,128.131,195.9609629,0.65385982
WIXYAE,CN1C(=O)CC(C(=O)O)C1c1ccc2c(c1)OCO2,1.4411,198.217,303.1500979,0.653857615
OJOJEC,CC(=O)n1nc2c(c1CC#N)CCc1ccccc1-2,1.3384,203.712,311.5558835,0.653853805
GAGJOQ,COc1ccc(C#Cc2c(-c3ccccc3)nnn2Cc2ccccc2)cc1,1.3075,303.234,463.7650172,0.653852681
ETOBEU,C/C(=N\NC(=O)c1cc2ccccc2cc1O)c1ccccc1O,1.3702,253.668,387.961453,0.653848464
BASXIF,Cc1nc(-c2ccccc2)cc(-c2cc3ccccc3o2)n1,1.3406,231.725,354.4049561,0.653842437
UJUVIE,COC(=O)c1ccccc1-c1nc(-c2ccc(C)cc2)no1,1.3572,235.282,359.8461498,0.653840538
CEGXIX,COc1ccc(C(=O)c2c3c(n4ccc(C)cc24)C(=O)c2ccccc2C3=O)cc1,1.3754,311.912,477.0461159,0.653840351
CIGHOP,O=C1n2c3ccccc3c(=O)n2C23C4CCC(C4)C12C1OC3c2ccccc21,1.4353,279.994,428.2315693,0.65383783
OKAJAN,O=C1CCC2c3cccn3-c3cc(-n4cccc4)ccc3N12,1.3796,227.542,348.0104255,0.653836734
FASPUK,Cn1c(=O)[nH]c2nc(-c3ccccc3)n(-c3ccccc3)c2c1=O,1.391,248.303,379.7672527,0.653829413
TECKAO,COc1nc(OC)nc(On2nnc3cccnc32)n1,1.4853,201.078,307.5421441,0.653822586
GINXUZ,Nc1ccccc1C(=O)CCc1ccc2c(c1)OCO2,1.3639,214.222,327.6457835,0.653821935
NUCMAZ,COc1cc(/C=C2\CCn3c2nc2ccccc2c3=O)cc(OC)c1O,1.3882,273.836,418.8303752,0.653811224
XORYIO,O=C1Nc2c(c(=O)[nH]c(=O)n2Cc2ccccc2)C(=O)c2cccc3cccc1c23,1.4142,304.854,466.2951836,0.653779002
SAWMOU,CCC(=O)c1cc(N)on1,1.3744,110.635,169.2238605,0.653778963
XENNUZ,O=C1C/C(=C(\c2ccccc2-c2ccccn2)C2CC(=O)N(c3ccccc3)C2=O)C(=O)N1c1ccccc1,1.358,410.255,627.5170859,0.653775027
GAGGOL,O=C1CCC2=NN1CC#Cc1ccccc1C#CCO2,1.3478,212.721,325.3803612,0.65376103
LEVYIV01,O=C(c1ccccc1)c1nccc2c1[nH]c1ccccc12,1.3513,218.598,334.3749689,0.653751089
MITPUD,CN(C(=O)c1ccccc1)c1ccccc1C#N,1.2961,197.754,302.4915482,0.653750497
QOLXAQ,COC(=O)c1cccc2c1C(=O)C=C1N(C(=O)OC)CC3CC123,1.4153,240.162,367.3606971,0.653749848
HOLGEV,Cc1ccc(NCC(O)COc2cc(O)c3c(c2)C(=O)c2cc(C)cc(O)c2C3=O)c(C)c1,1.3853,350.431,536.0337055,0.653748069
JAPBIO,CCn1nnn2c(=O)nc(N(C)C)nc12,1.4365,158.022,241.7233727,0.653730743
LALQEU,COc1nc(OC)c2c(ncn2C)n1,1.4213,148.238,226.7571039,0.653730346
TAMBOY,CC1(C)COC(=O)C2=CN3C(=CN21)C(=O)OCC3(C)C,1.413,213.68,326.8627931,0.653729958
ODANEM,CC(=O)N1C(=O)N(C)C(=O)C12N=NCC2C#N,1.4343,177.914,272.1593372,0.653712644
UVIHOZ,O=C1CCCOc2ccc(/N=C/c3cc(O)ccc3O)cc21,1.3832,233.165,356.6833714,0.653703028
NIGBOX,Cc1nnc(-c2ccccc2)c2c1C(=O)N1CCCN=C21,1.3726,219.951,336.4714362,0.653698877
TOAZCD,O=C1NCOCOCOCO1,1.5184,116.566,178.3177219,0.653698347
TEWQAP,O=C1Nc2ccccc2C1(Nc1ccccc1)c1nnn[nH]1,1.4134,224.345,343.1960622,0.653693398
MAMWAA,c1ccc(-n2c3ccc4oc5ccccc5c4c3c3c4c(ccc32)oc2ccccc24)cc1,1.3743,334.214,511.2733154,0.653689504
BEYJOH,N#Cc1ccccc1OCC(=O)c1ccccc1,1.3095,196.524,300.6440258,0.653676718
LEJTAX,Cc1cc2c(c(=O)o1)C1c3ccccc3C(O2)C2=C(COC2=O)N1c1ccccc1,1.4202,305.049,466.6689079,0.653673289
RAFWUR,O=c1nc2n(n1-c1ccccc1)-c1ccccc1OCC2,1.3922,217.611,332.9081668,0.653666752
DAXJOE,O=C(/N=N/c1ccccc1)c1ccc[nH]1,1.3356,161.793,247.5166348,0.653665157
GAHTUG,O=C(O)c1cccc(C(=O)/C=C(\O)c2ccccc2)n1,1.3835,211.102,322.9603631,0.653646776
SOPMEP,COc1ccc(N(C#N)CC#CC#CCN(C#N)c2ccc(OC)cc2)cc1,1.3014,308.721,472.3063053,0.653645731
EMETIA,Cn1c([O-])c(C2c3cccc4cccc(c34)[N+]2(C)C)c(=O)n(C)c1=O,1.3839,264.432,404.5516803,0.653642076
BIVRII,Cc1ccc(N/C=C2/C=CC=CC2=O)c(O)c1,1.3298,185.363,283.5865095,0.653638286
QILZAO,COc1ccc2nc(-c3ccccc3)cnc2c1,1.3341,192.088,293.8754932,0.653637355
RIHRUY,COC(=O)C1(/C=C/C=O)CCC(c2ccc3ccccc3c2)=N1,1.3337,249.947,382.3984948,0.653629665
GOVRIS,O=c1n(-c2ccccc2)c(=O)n2n1C1C=CC23C=CCC32CC2C1,1.3926,248.732,380.5476998,0.653615828
QALKOG,N#Cc1ccc(N2C(=O)C3C(O)CCN3C2=O)c2ccccc12,1.3969,238.613,365.067725,0.65361297
YUKLIZ,Nc1ccn(C=C=CCO)c(=O)n1,1.3767,141.177,215.9967842,0.653606953
PRHDNB,O=C1NC(=O)N2CC(O)CC12,1.4836,114.164,174.6713595,0.653593127
CEVLIB,COC(=O)/C=C(\NC(=O)C1C(C(=O)OC)C(C(=O)OC)=C2C=Cc3ccc4cccnc4c3N21)C(=O)OC,1.4296,395.65,605.3516919,0.653587006
SIVCAB01,Cc1[nH]c(=O)ccc1-c1ccncc1,1.33,151.85,232.3333135,0.653586856
PEXLAF,O=C(c1ccccc1)c1ccc(=O)[nH]c1-c1ccccc1,1.3339,223.833,342.471055,0.653582242
TEGMOK01,Cc1ccc(O)c(/C=N/C(C#N)=C(/N)C#N)c1,1.3162,186.429,285.2435166,0.653578396
MABSOZ,CN1C(=O)CC(C(=O)[O-])C1c1cc[nH+]cc1,1.3901,171.833,262.9111618,0.653578185
ENITAW,N#Cc1cc(Oc2cccc3ccccc23)c(Oc2cccc3ccccc23)cc1C#N,1.3368,334.596,511.9452632,0.653577685
NUQRIB,CC(=O)Oc1ccc(/C=C2\N=C(c3ccccc3)OC2=O)cc1,1.3709,243.116,371.9778619,0.65357653
CADVAE,CC(=O)C1=CC=C/C2=C/C3=CC=CC=C(/C=C/1C2)N3,1.314,205.762,314.8257029,0.653574337
WORDEO,CCCNC(=O)c1cnn2c(-c3cnccn3)ccnc12,1.3821,221.543,338.9720735,0.653573015
SEWPUG,Cc1cc(=O)n2c(=O)cc(-c3ccccc3)n12,1.3743,178.537,273.1709687,0.653572379
TULWIJ,CC(=O)N1C(=O)C2(c3ccccc31)C1c3ccccc3CC13C(=O)c1ccccc1C2(O)C3=O,1.4082,346.146,529.6258851,0.653566998
VONROF,O=C1NCCOCCOc2ccccc2C(=O)NCCOCCOc2ccccc21,1.3876,323.949,495.6657475,0.653563418
LOWCUX,CN1C(=O)C2(C3=C(C(C#N)=C(N)C2(C#N)C#N)c2ccccc2CC3)c2ccccc21,1.3517,323.691,495.2724576,0.653561479
DUJJUO,COC(=O)c1c(C(=O)OC)c2n(Cc3ccccc3)c3ccccc3n2c1C#N,1.3748,305.603,467.5986596,0.653558332
NAXHUR,O=C(NCc1ccccc1)Nc1nonc1CO,1.4105,190.891,292.0806915,0.653555697
SOJCIF,Cn1c(=O)c2c(c3ccccc31)OC(c1ccccc1)=CC2c1ccc2c(c1)OCO2,1.3908,319.26,488.4984298,0.653553789
OCISOI,O=C1CCC(=O)N1CN(CN1C(=O)CCC1=O)CN1C(=O)CCC1=O,1.4444,263.074,402.5295254,0.653552059
GUKWEO,O=C(Nc1ccccc1NC(=O)c1ccccn1)c1ccccn1,1.3668,252.589,386.4912559,0.653543893
DOYPUD,CCOC(=O)C1(O)C(=O)NCCc2c1[nH]c1ccccc21,1.4125,221.366,338.716558,0.653543486
MANWIK,Cc1nc(C(=O)NCc2ccccn2)c(C)nc1C(=O)NCc1ccccn1,1.3618,299.781,458.7011482,0.653543165
PEFMET01,Cc1ccccc1Nc1ccccc1C(=O)O,1.3279,185.601,283.9922738,0.653542428
KEZFUT,OC1(O)CC(n2cc(-c3ccccc3)nn2)C2COC1O2,1.4454,217.073,332.1501651,0.653538739
AKETUH,COC(=O)c1c(C)c2c(c(C(=O)OC)c1C(=O)OC)C(=O)N(c1ccccc1)C2=O,1.4207,314.028,480.5131616,0.653526324
TUWGEX,CC1(C)CN=c2c3cccc4cc5ccccc5c(c(=O)n2C1)c43,1.3587,250.914,383.9435202,0.653517996
HEQKOG,CC1(C(=O)Oc2ccc3ccccc3c2)Nc2cccc3c2N(CC3)c2ccccc21,1.3584,324.489,496.5273802,0.653516831
CEOMHP,CCOC(=O)c1cnc2cccc(C)n2c1=O,1.382,182.245,278.8712055,0.653509564
PZHDEX,O=c1n(-c2ccccc2)c(=O)n2n1C1C3C4C3C3C15C1OC1C1OC1C35C42,1.4745,265.768,406.6822982,0.653502749
QIMQEL,Cc1cccnc1NCN1C(=O)c2ccccc2C1=O,1.3719,211.282,323.3089509,0.653498765
PYRDMD,CN(C)C1=c2c(=O)n(C)c(=O)n(C)c2=NC2C=CC=CN12,1.4063,221.572,339.061179,0.653486786
IMERUB,COc1c(OC)c2c3c(nccc3c1OC)-c1cc(=O)c(OC)ccc1-2,1.3941,273.293,418.229957,0.653451517
MAFJAI,CCn1c2ccccc2c(=O)c2c3c(=O)c4ccccc4n(CC)c3ccc21,1.3551,294.803,451.150472,0.653447172
LOPLUZ,COC(=O)c1c(C(=O)OC)c2c3ccccc3ccn2c1C(=O)c1ccccc1C,1.3758,316.373,484.1622122,0.653444222
LAMTEZ,OCC12COC3C4OCC5(CO)COC(C(OC1)N32)N45,1.5262,203.424,311.3124342,0.65344001
ENIKIW,O=C(c1ccccc1O)c1cc(C(=O)c2ccccc2)n2ccc3ccccc3c12,1.3588,312.336,477.9918108,0.653433789
ORODUW,Cc1cc2nc3n(c2cc1C)-c1ccccc1C3=O,1.3544,198.763,304.1837682,0.653430659
LAGTET,CC(=O)NOC(=O)c1ccccc1,1.3594,142.926,218.7318806,0.653430124
COYMOS,NC(=O)C1(C(N)=O)CN1c1ccccc1,1.3752,161.817,247.6471503,0.653417573
ZIYJEY,C(=C/c1nc2ccccc2o1)\c1ccc(N(c2ccccc2)c2ccccc2)cc1,1.3113,321.187,491.5537631,0.653411741
IFUZAM,O=C(NCCCCCCNC(=O)c1ccc2ncccc2c1)c1ccc2ncccc2c1,1.3339,346.689,530.592233,0.653400066
IJUXIW,O=C(OCCOCn1c(=O)cc(N2CCOCC2)[nH]c1=O)c1ccccc1,1.4237,285.904,437.5658668,0.653396487
AKEWUI,CC(=O)C(=CNc1cccnc1N)C(C)=O,1.3415,177.212,271.2178529,0.653393566
POGBAQ,CCCCn1nc2c3c(cccc31)C(=O)c1ccccc1-2,1.3353,224.366,343.3949469,0.653375951
DIHRUH10,CNC(=O)/C(C=O)=C(/C)N,1.3375,115.252,176.3951119,0.653374114
XANGAU,COC(=O)c1nnc(C(=O)OC)c2c1C1CC2C1,1.419,189.686,290.317943,0.653373326
TUWDEU,CCOC(=O)c1cc2cccc(O)c2oc1=N,1.4063,179.817,275.2144366,0.653370521
LIFBEJ,CCOC(=O)C1=C(O)C(=O)N(c2ccccc2)C1c1ccccc1,1.3602,257.737,394.4758327,0.653365754
KOTMOV,COc1ccc(-n2cnc(/C=N/O)c2)cc1,1.3621,172.918,264.6586604,0.653362334
POFTIN,CC12C(=O)NC(=O)N3CCOc4ccccc4OCCN4C(=O)NC(=O)C1(C)C4C32,1.4509,309.699,474.0120087,0.653356865
NEVYUI,Cc1ncn2c1C=CC2=O,1.3616,106.812,163.4842318,0.653347413
ACYTID,Nc1ccn(C2OC(CO)C(O)C2O)c(=O)n1,1.4897,177.039,270.9725552,0.653346609
MISWUH,COc1ccc(C(=O)c2ccc3n2CCC3=O)cc1,1.3661,202.589,310.0810304,0.653342127
XILZAU,N/C(=N\O)c1cccnc1,1.3644,108.986,166.8132726,0.653341298
WOVYAH,O=C(Nc1cccc2cccnc12)c1ccccn1,1.3529,199.752,305.7426314,0.653333816
XAZPEV,Oc1cccc(/C=N/c2cccnc2)c1,1.3241,162.296,248.4181762,0.653317734
PEYWOG,O=C1c2cc3ccccc3cc2C(=O)N1c1ccc2ccc3cccc4ccc1c2c34,1.373,313.782,480.2923008,0.653314658
DUTLEK,O/C(=N\N=C\c1c(O)ccc2ccccc12)c1ccco1,1.3829,219.728,336.3285893,0.653313477
UCIHAR02,COc1ccc(O)c(/C=C2\N=C(C)N(C)C2=O)c1,1.3665,195.383,299.0665162,0.653309513
IVATUV,COc1cc(OC)c(/C=C2/C(=O)ON=C2c2ccccc2)c(OC)c1,1.3755,267.462,409.3981701,0.653305314
QIMQIP,Cc1ccnc(NCN2C(=O)c3ccccc3C2=O)c1,1.3731,211.034,323.0264,0.65330264
DUBDUB,COC(=O)C1(C#N)C(C(=O)c2ccccc2)C1(C#N)C(=O)OC,1.3698,247.16,378.3261179,0.653298803
QERMIJ,COc1cccc(/C=N/c2cccc(/N=C/c3cccc(OC)c3O)n2)c1O,1.3697,298.711,457.2348877,0.653298792
VOBNAB01,Cc1nnnc(-c2ccccc2)c1C(N)=O,1.36,170.775,261.4046444,0.653297497
WIWYAD,COc1ccc2c(c1OC)C1c3cc4c(cc3CCN1C2=O)OCO4,1.427,257.804,394.6231135,0.653291688
SAVYAR,CN(C)C(=O)c1cc(OC(=O)c2ccccc2)c(-c2ccccc2)[nH]1,1.3699,264.602,405.0362592,0.653279784
OLALOC,CCOC(=O)c1cn2c(nc1=O)N(c1ccc(C)cc1)CC2,1.3781,235.468,360.4457456,0.653268912
SABPIW,CC1=NN(C=O)C(c2ccccc2O)C1,1.3537,163.549,250.3594968,0.653256625
FAPWOK,O=C(O)CC1(Cc2ccncc2)C(=O)N(Cc2ccncc2)c2ccccc21,1.3634,296.873,454.4819352,0.653211882
UMIZUN,CC(=O)/C(C)=N/NC(=O)C(=O)N/N=C(\C)C(C)=O,1.3768,200.196,306.4794879,0.653211741
MUSKOA,O=C1C2C3CCC(c4c3oc(=O)n4-c3ccccc3)C2C(=O)N1c1ccccc1,1.4178,295.415,452.2513236,0.653209807
KETQAD,O=C(NCc1nc2ccccc2[nH]1)c1ccccc1-c1ccccc1C(=O)NCc1nc2ccccc2[nH]1,1.3702,395.979,606.2075613,0.653206963
QIGFOB,N#Cc1cccc2c1Oc1ccccc1O2,1.3753,164.877,252.4137097,0.653201446
ICOTOJ,CCOC(=O)c1c2c(cn1C)c(=O)oc1ccccc12,1.3982,210.301,321.9588406,0.65319219
DICNOS,CCC(C)CN1C(=O)c2ccc3c4ccc5c6c(ccc(c7ccc(c2c37)C1=O)c64)C(=O)N(CC(C)CC)C5=O,1.3705,419.641,642.4547666,0.653183729
MUTXII,Cc1cn2c(nc1=O)OC1C(O)COC12,1.4832,153.62,235.1890324,0.653176717
MUNNOB,COc1ccc(CC(=O)O)c(-c2nc(-c3ccccc3)nn2-c2ccccc2)c1,1.3536,308.619,472.4939941,0.653170207
AFUMUM,O=C(N/N=C/c1cccc(O)c1O)N/N=C/c1cccc(O)c1O,1.4306,250.27,383.1665835,0.653162386
EDITOB,COc1cccc2c(=O)[nH]c(CCCC#N)cc12,1.3314,197.234,301.9681834,0.653161528
UZAKUD,N#[N+][N-]CC1OC2CC(=O)OC2C1O,1.4835,145.539,222.8229748,0.653159757
UXAZIE,CC(=O)/C=C(/C)N/N=C1/c2ccccc2-n2c1nc1ccccc1c2=O,1.3745,271.548,415.756884,0.65314132
DESXOO,O=c1[nH]/c(=C\c2ccccc2)c(=O)[nH]/c1=C\c1ccccc1,1.3457,233.816,357.9915578,0.65313272
REZQAP,COc1ccc(-c2c3c(nc4c2c(C)nn4-c2ccccc2)COC3=O)cc1,1.3847,290.69,445.0736492,0.65312786
SECXUV,CCc1c(O)c2cccc(OC)c2[nH]c1=O,1.3757,172.727,264.4617981,0.653126468
APOYOV,CCN(CC)c1ccc2cc(-n3cc(-c4ccccc4)nn3)c(=O)oc2c1,1.3528,288.749,442.1048301,0.653123378
HALLAH,COC(=O)c1cccnc1-c1ncccc1C(=O)OC,1.3875,212.677,325.6328369,0.653119022
NAHBUV,Nc1cc(=O)oc2ccccc12,1.3914,125.533,192.206249,0.653116122
CEFYAP,N#Cc1ccc(N/N=C/c2ccccc2O)cc1,1.3222,194.478,297.7703872,0.653113971
TCMPCP10,COc1ccccc1C1C(C#N)(C#N)C1(C#N)C#N,1.3001,206.943,316.8561864,0.653113333
XUVQAJ,O=c1c2ccccc2nc2n1-c1ccccc1CO/C=C\2,1.3839,216.369,331.291893,0.653106836
EMIPEW04,O=C(N/N=C/c1ccccn1)Nc1ccccc1,1.3379,194.63,298.0132333,0.653091803
VAQQUB,CC1(CC(=O)N2C(=O)OCC2c2ccccc2)C(=O)N(c2ccccc2)c2ccccc21,1.3641,338.814,518.7874083,0.653088326
PHAMPD,O=C1CC(Nc2ccccc2)C(=O)N1,1.3759,149.821,229.404217,0.653087384
VOPDOT,CN1CC(=O)N(C)C(C2C(=O)N(C)CC(=O)N2C)C1=O,1.4168,215.964,330.681632,0.653087378
EVOGAY,Nc1cccc(C(=O)N/N=C2\C(=O)Nc3ccccc32)c1,1.3909,218.396,334.4075492,0.653083343
PAPPHI,O=C1c2ccccc2C(=O)N1c1ccc(Nc2ccccc2)cc1,1.3517,252.015,385.8871341,0.653079561