name,smiles,Density,Vint,Veff,pc
XOZGUP,NC(=O)CCn1ccnc1-c1nccn1CCC(N)=O,1.5229,216.771,301.1013504,0.719927027
EWIXIT02,Oc1ccc2ccc3c(nnc4ncnn43)c2c1,1.5885,178.412,247.8251422,0.719910815
XZBTZO,O=c1on[n+]2c3ccccc3[n-]nc1-2,1.6278,138.094,191.8222792,0.719905949
IYAQOP01,O=c1cc(O)[nH]c(=O)[nH]1,1.6675,91.749,127.492445,0.719642642
NUTTIF,O=c1[nH]nn[nH]1,1.6978,60.542,84.1380389,0.719555635
LIVSEP,O=c1c(=O)n(O)c2ccccc2n1O,1.6391,141.375,196.5778754,0.719180628
ERODAR,O=C([O-])c1cc(C(=O)O)cc(-c2cc[nH+]cc2)c1,1.5405,188.394,262.0019953,0.719055593
MUXGIX,Nc1nnc(-c2nonc2N)o1,1.6857,119.016,165.5374714,0.718967126
MEJWED,O=C1C(=O)c2cccnc2-c2ncccc21,1.5373,163.124,226.8895371,0.718957789
JIXGUS,NC1=NC(=O)N(C=O)C1O,1.6528,103.305,143.708102,0.718852998
KASNOH,O=C1NC2C(O)C(O)C(O)C(CO)N2C1=O,1.6729,165.596,230.3632444,0.718847316
PAXNIL02,O=C(O)CC1NC(=O)C(CC(=O)O)NC1=O,1.6507,166.354,231.433624,0.718797887
KUYPAV01,Nc1cccc2c(O)n[nH]c(=O)c12,1.5807,133.692,186.0034063,0.718761031
MOFJIA,COC(=O)c1nnc(C(=O)OC)c2c1[nH]c1ccc3c(C)cc(=O)oc3c12,1.5997,273.842,381.0550545,0.718641563
URACIL,O=c1cc[nH]c(=O)[nH]1,1.6055,83.257,115.8720005,0.718525611
HOCGEM,Cn1c(=O)[nH]c(=O)n(C)c1=O,1.6223,115.502,160.7564196,0.718490747
OWEKAF,N#[N+][N-]Cc1nc(-c2nonc2N)no1,1.6552,149.963,208.7244592,0.718473535
UREAOH01,NC(=O)NO,1.6288,55.681,77.51160167,0.718356979
NOLCIA,NC(=O)C(O)C(O)C(N)=O,1.6232,108.783,151.4595763,0.718231245
IGAMEK,O=C(O)c1ccncn1,1.5575,94.961,132.2373655,0.718110192
AZBUTO,[N-]=[N+]=CC(=O)C(=O)C=[N+]=[N-],1.5366,107.102,149.1554846,0.718056063
TGLYCY10,[NH3+]CC(=O)NCC(=O)NCC(=O)[O-],1.5719,143.422,199.7441768,0.718028441
QUYFOI,Cn1c(=O)[nH]c(=O)c2nc3cc(-c4ccccc4)oc3nc21,1.5861,221.009,307.8881703,0.717822318
CINSOH,NC(N)=C1N=NN=C1[C@H](O)[C@H](O)CO,1.6025,149.563,208.37674,0.717752855
NIQPOT,NNC(=O)c1ccc(O)cc1,1.5141,119.7,166.771332,0.717749259
BERGIP,Oc1ccc(O)c2c3nc4cccc(n4)nc4[nH]c(nc5cccc(n5)nc([nH]3)c12)c1c(O)ccc(O)c41,1.5995,375.646,523.3869123,0.717721424
DIKPIP01,O=C1CNC(=O)CN1,1.5903,85.461,119.0842516,0.717651569
CYTSIN,Nc1cc[nH]c(=O)n1,1.561,84.684,118.1284052,0.716880922
GALHAF,O=Cc1ccc[nH]c1=O,1.5102,96.951,135.2847215,0.716644119
QAJYIJ,O=c1ccn2ncnc2[nH]1,1.6047,100.875,140.7774356,0.716556596
CYMINO01,N#CC(C#N)=C1C(=O)c2ccccc2C1=O,1.4731,167.996,234.5055304,0.716383958
BERBOP,NC(=O)NC(CC(=O)O)C(=O)O,1.6359,127.981,178.7013505,0.716172539
WUPYEM,O=C1c2ccccc2C(=O)c2nc3ccccc3nc21,1.5232,203.027,283.5171178,0.716101383
BEKBOI,O=C1OCc2c(O)cncc21,1.5928,112.745,157.4556389,0.716042949
KUSROG,N#Cc1cccc2c1C(=O)c1cccc(C#N)c1C2=O,1.5022,204.252,285.2523535,0.716039666
DHPROL10,O=C([O-])C1[NH2+]CC(O)C1O,1.6121,108.455,151.4772494,0.715982106
JOXYAY,N#CC1=C(C#N)c2cccc3cccc(c23)C1=O,1.4623,187.006,261.2444301,0.715827702
ROGXIU,Nc1[nH+]cccc1C(=O)[O-],1.5437,106.288,148.4965248,0.715760858
BUDNAQ,O=C1Nc2ccc(O)cc2/C1=N\O,1.5925,132.868,185.6512656,0.715685937
UHEGOG,O=c1[nH]c2ccccc2n2nnnc12,1.5997,138.907,194.1703131,0.715387423
JIRRAG,Nc1noc(-c2nonc2N)n1,1.6833,118.573,165.7734899,0.715271182
XEQTOE,C/C(=N\O)c1nc2c(=O)n(C)c(=O)n(C)c2nc1C,1.5654,199.604,279.1024111,0.715164012
LINJUN,O=C1c2ccccc2C(=O)N1O,1.5712,123.213,172.3030433,0.71509474
GAPZAA,C[n+]1ccc(-c2nc(C(=O)O)c(C(=O)[O-])[nH]2)cc1,1.5746,186.316,260.5529551,0.715079205
PAKNIB,O=C1c2ccccc2C(=O)c2[nH]c(-c3ccccn3)nc21,1.5253,214.083,299.4692013,0.714874849
VONFEM,O=C(N/N=C/c1ccc(O)c(O)c1)c1ccc(O)cc1,1.5297,211.142,295.3622025,0.714857887
OLOCIB01,O=C(O)CN1CC(=O)N(CC(=O)O)CC1=O,1.6299,167.478,234.3870687,0.714536007
FIJTAV01,NC(=O)NC(=O)/C=C\C(=O)O,1.596,117.485,164.4293206,0.714501523
IQOGIG,N/C(=N\O)c1cnccn1,1.5292,107.071,149.9167796,0.714202908
NEFFOT,COC(=O)c1nnc(C(=O)OC)nn1,1.6074,146.116,204.5933837,0.714177542
FACWAI,O=C1NC(=O)C2(CC(O)C(CO)C2)C(=O)N1,1.6213,166.765,233.6031064,0.713881774
QAYXAS,N#Cc1ccccc1NC(=O)Nc1ccccc1C#N,1.4496,214.325,300.233938,0.713860004
OXOFMB,O=c1[nH]c(=O)c2[nH]nc(C3OC(CO)C(O)C3O)c2[nH]1,1.6706,201.562,282.3752431,0.713809036
FASFAG,COC1(NC(N)=O)C(=O)NC(=O)NC1=O,1.681,152.298,213.4275721,0.713581654
YAJXOX,CNc1ncnc(N)c1N=O,1.5521,116.822,163.7651172,0.713350938
EGIRUJ,N#C/C(=C\c1cccc(O)c1)C(N)=O,1.457,152.897,214.3377307,0.713346173
LAPSIG,NNc1ccc(C(=O)O)cn1,1.5383,117.823,165.2221181,0.713118809
TOKNUC,[NH3+]C1(C(=O)[O-])C=CC(C(=O)O)C1,1.5666,129.289,181.3167839,0.713055886
EACHUL,O=c1cc2n(c(=O)[nH]1)C1OC(COC2O)C(O)C1O,1.6968,189.847,266.2601525,0.713013187
CICSUD,O=C1NC(=O)c2cc3ccccc3cc21,1.5165,153.804,215.7714308,0.712809844
LACJEE,O=C([O-])C[NH2+]CC[NH2+]CC(=O)[O-],1.5309,136.128,190.9974271,0.712721643
HEBMUY,O=C(O)c1ccc(-n2cncn2)cc1,1.5293,146.307,205.2852837,0.712700869
SEGZIP,COC(=O)c1ccc(C(=O)Nc2ccccn2)cc1,1.4823,204.395,286.8882183,0.71245519
LITQIO,N#CCCC12C(=O)NC(=O)C1C(=O)NC2=O,1.5909,164.356,230.7279494,0.71233676
DCXPYO,O=C(O)C1=CC=C/C(=C(\[O-])O)[N+]1=O,1.6289,132.9,186.5784591,0.712300877
ZUSTAI,O=c1c2cc3ccccc3n2c(=O)c2cc3ccccc3n12,1.5249,221.889,311.5318134,0.712251495
OCIGIQ,COC(=O)c1cc2cc(C=O)oc2[nH]1,1.5684,145.541,204.3854153,0.712090928
YOMJIW,Nc1nc2c(cnn2C2OC(CO)C(O)C2O)c(=O)[nH]1,1.651,202.737,284.7377496,0.712013072
DUPLUV,O=C1c2cccc(n2)C(=O)c2cccc(n2)C(=O)c2cccc1n2,1.5331,242.978,341.2666675,0.711988668
DAFRAD,Nc1nonc1N,1.6075,73.579,103.3430488,0.711987897
JEMTAW,NC(=N\O)/C(N)=N/O,1.5947,87.501,122.9273811,0.711810495
ZARJEJ,Nc1nonc1-c1nonc1-c1nonc1N,1.6822,165.849,233.0097968,0.711768356
RPPYPY20,Nc1ncnc2c(NC3OC(CO)C(O)C3O)ncnc12,1.6136,215.417,302.6742491,0.711712346
TARMIJ,NC(N)=[NH+]c1ccc(C(=O)[O-])c(O)c1,1.5629,147.503,207.2582558,0.71168697
BIYRIK,O=C(O)CCn1ccc(=O)[nH]c1=O,1.5846,137.253,192.8756684,0.711613866
SELRUY,O=C1C=Cc2ccccc2/C1=C/Nc1ccc(O)c(C(=O)O)c1,1.5111,240.134,337.4657208,0.711580422
VUWYER,CC(=O)N1C(=O)C(=O)N(C(C)=O)C1=O,1.6137,144.999,203.7830767,0.711536023
PZPZTO,O=c1ccc(=O)n2c(=O)ccc(=O)n12,1.615,140.44,197.438766,0.711309146
DLHIST,[NH3+]C(Cc1c[nH]cn1)C(=O)[O-],1.5188,120.593,169.5472562,0.711264828
KUXPUP,O=C(O)c1c[nH]ccc1=O,1.5638,105.005,147.6327801,0.711258028
AMCYTS,NNc1cc[nH]c(=O)n1,1.5638,95.186,133.8569762,0.711102273
VOJDAA,Nn1c(-c2ccc(O)cc2)n[nH]c1=O,1.564,144.998,203.9275467,0.71102704
ETHBSD,O=c1c[n+](CC[n+]2cc(=O)o[n-]2)[n-]o1,1.6319,143.287,201.5217875,0.711024856
APYNAC,C#CC(O)C([NH3+])C(=O)[O-],1.4869,102.464,144.1173785,0.710976019
KUVXUV,O=Cc1ccc(=O)n2c1oc1ccccc12,1.5387,163.464,229.9204069,0.710959076
CEJRAL,Cn1c(=O)c2c(ncn2CC(=O)O)n(C)c1=O,1.6021,175.435,246.763237,0.710944637
WAGXOV,O=c1ccn(Cc2cn[nH]n2)c(=O)[nH]1,1.5812,144.131,202.7544863,0.710864665
FOGWED,Nc1nc(N)c2nc(CNc3ccc(C(=O)O)cc3)cnc2n1,1.5589,235.582,331.4095634,0.710848527
DOCNAL,O=c1c2cc3c(=O)n(-c4ccncc4)c(=O)c3cc2c(=O)n1-c1ccncc1,1.5517,281.42,396.0421357,0.710580957
HAKHEI,COC(=O)c1c([O-])n(O)c2ccccc2[n+]1=O,1.6009,173.951,244.8457364,0.710451415
HOCGEL,NC(=[NH2+])c1cccc(C(=O)[O-])c1,1.4864,130.185,183.2855717,0.710285042
BOSMUS,Nc1cccc2c1C(=O)c1cccc(N)c1C2=O,1.5091,186.063,261.9747282,0.710232629
NAPHYZ02,NN1C(=O)c2cccc3cccc(c23)C1=O,1.5287,163.584,230.3555137,0.710137115
DIPGIS10,Cn1nnc2c(C(N)=O)ncn2c1=O,1.6205,141.213,198.857207,0.710122616
REQQUA,O=c1[nH]cn[nH]1,1.603,62.544,88.08287712,0.71005855
YUZYIB,COC(=O)c1cc(C#N)c(=O)[nH]c1C,1.5016,150.79,212.3894706,0.709969282
QOWGUH,O=c1[nH]c2ccccc2oc1=O,1.5705,122.373,172.3798419,0.709903192
XIQCEF,NC(N)=[NH+]NCC(=O)[O-],1.5613,99.705,140.4641537,0.709825229
JIJDAH,O=C(O)CCNC(=O)C(=O)NCCC(=O)O,1.5714,174.059,245.2428863,0.70974128
NONZAR,N#CC(C#N)=c1ccc(=C(C#N)C#N)c2nonc12,1.4684,197.472,278.231934,0.709738804
FESCAH,O=CN(C=O)C=O,1.5375,77.428,109.0987662,0.709705551
PIGROM01,CC(=O)c1cccc2oc(=O)[nH]c12,1.5348,135.927,191.5539028,0.70960183
DOKVIJ,O=C(O)c1cccc(-c2nnn[nH]2)c1,1.5533,144.175,203.1774253,0.709601472
ISCOFF,Cn1c(=O)c2ncn(C)c2n(C)c1=O,1.548,147.735,208.1975915,0.709590341
GASNEU01,O=C(Nc1cccnc1)Nc1cccnc1,1.4776,170.703,240.5998351,0.709489264
KUGVEP,O/N=C1C(=N/O)/c2cccc3cccc/1c23,1.505,165.997,233.9830391,0.709440311
MECWIC01,Nc1nc2c(ncn2COCCO)c(=O)[nH]1,1.5879,166.949,235.3914766,0.709239784
FIZDIB,N#[N+][N-]C1C(=O)OC(CO)C1O,1.6115,126.464,178.3160377,0.709212708
COVVIS,Nc1nc2c(ncn2CCC(=O)O)c(=O)[nH]1,1.6052,163.652,230.7693355,0.709158345
VIMKEH,NC(=O)Cn1cnc(C(N)=O)c1N,1.5631,137.904,194.4951584,0.709035645
GEBTUC,O=c1[nH]cnc2[nH]cnc12,1.6016,99.995,141.0499194,0.708933407
DUXJOY,Cn1cnc2c(=O)[nH]c(N)nc21,1.5986,121.554,171.4669325,0.708906366
WIGSEM,O=C(Nc1cccnc1)C(=O)Nc1cccnc1,1.4988,190.11,268.2136853,0.708800521
AMIPYZ,NC(=O)c1ccc(=O)[nH]n1,1.5661,104.48,147.4278754,0.708685516
SODRUA,O=C(O)c1cn(-c2ccccc2O)nn1,1.5555,155.108,218.9032077,0.708568877
BULJEX,O=c1c2ccccc2nnn1O,1.5741,121.863,171.9974562,0.708516293
NOPNIR,O=C(O)c1ccc(NC(=O)c2cccnc2)cc1,1.4999,189.881,268.0045454,0.708499178
CYPYRO01,[N-]=C=C1C=C[N+](=O)C=C1,1.4378,98.207,138.6324535,0.708398341
BUNYOY,NC(=O)/C(N)=C(\N)C(N)=O,1.5535,109.058,153.9967063,0.708183978
PYINDB,O=C1C([n+]2ccccc2)=C([O-])c2ccccc21,1.4688,178.583,252.1915601,0.708124411
AREDIN,O=C1c2ccc3c4c(ccc(c24)C(=O)N1c1cccnc1)C(=O)N(c1cccnc1)C3=O,1.5562,317.428,448.2679415,0.708121127
RAPHUO,c1coc(-c2nncc(-c3cnnc(-c4ccco4)n3)n2)c1,1.5438,222.451,314.1682164,0.708063351
WOSDAM,N/N=C(\N)c1nonc1NN,1.6014,115.302,162.8777618,0.707905111
AFIMUA,NC(=O)/C=C\C(=O)O,1.5339,88.143,124.528158,0.707815818
GOMWIP,O=C(O)CC(C(=O)[O-])[n+]1cc[nH]c1,1.5685,137.915,194.8554569,0.70778105
LISGUR,Cc1cc(=O)[nH]c2nnnn12,1.5872,111.823,158.0346836,0.70758518
BESZII,O=c1[nH]ncn1C1OC(CO)C(O)C1O,1.6333,156.161,220.6981124,0.707577416
DHURAC10,O=C1CCNC(=O)N1,1.5701,85.34,120.6163208,0.707532774
FUZZAB,O=C(NO)c1cccnc1,1.4983,108.202,152.9961191,0.707220553
GINQAX,Cc1ccc[n+]2c1C(O)CC2(O)C(=O)[O-],1.5374,159.698,225.8225981,0.707183432
EVATUR01,O=C(O)c1ccc(-n2cc(CO)nn2)cc1,1.5329,167.818,237.3138026,0.707156508
ISNICA,O=C(O)c1ccncc1,1.486,97.223,137.4878778,0.707138706
MOGYIR,O=CN(C=O)CO,1.5325,78.93,111.6388526,0.707011924
VOQQEY,O=C(O)Cn1ccnc1-c1nccn1CC(=O)O,1.56,188.193,266.1965269,0.706970155
WUXGAA,O=C1C=Cc2ccc(O)cc2/C1=C/Nc1ccc(O)c(C(=O)O)c1,1.5291,248.035,350.8636492,0.706927037
MEVWOZ,O=C(O)c1ccccc1-n1cnnn1,1.545,144.397,204.2689286,0.706896546
KUNVEU,Cc1c(O)c(O)cc[n+]1CC(=O)[O-],1.5388,139.631,197.5422887,0.706841056
SADXAW,Cn1c(=O)nc2n(C)c(=O)ccn2c1=O,1.5903,153.534,217.2570197,0.706692931
XAYVIC,O=C(O)CN1C(=O)C(O)C(O)C1=O,1.6492,134.47,190.3339776,0.706494982
TRPHAM03,NC(=O)c1ccc(C(N)=O)cc1,1.4824,129.83,183.7801361,0.706441962
GEXGIZ01,O=C([O-])Cn1cc[n+](CC(=O)O)c1,1.5536,138.962,196.7242432,0.70637964
DAFXAM01,O=C(O)c1cc(C(=O)O)c[n+]([O-])c1,1.5997,134.196,189.9841546,0.706353645
DLSERN,[NH3+]C(CO)C(=O)[O-],1.5383,80.091,113.3938309,0.706308265
FERBUZ,O=c1[nH]c(O)c(-c2ccccc2)c(=O)[nH]1,1.5489,154.517,218.7689515,0.706302238
EYOREP,Cc1nc2ccccn2c(=O)c1O,1.5133,136.447,193.1955816,0.706263564
HYXBUR10,NC(=O)NC(=O)NO,1.6472,84.751,120.0014272,0.706249933
BUDMOD,O=C(O)c1ccc(/N=N/c2ccc(C(=O)O)cc2)cc1,1.5086,209.944,297.2745412,0.70622933
EKUCOF01,NC(=[NH2+])c1ccc(C(=O)[O-])cc1,1.482,129.825,183.8297393,0.706224142
BDORLA10,O=C1OC2C(O)C(CO)OC2n2c1cc(=O)[nH]c2=O,1.6752,188.949,267.6952234,0.705836277
KIYQUF,COC(=O)c1cc2c([nH]1)C(=O)C(=O)NC2=O,1.6084,161.8,229.2334936,0.705830538
HOYWAU,CC(=O)/C(=N/Nc1ccccc1C(=O)O)C(=O)Nc1ccc2[nH]c(=O)[nH]c2c1,1.5518,287.848,407.8275635,0.705808105
DEVQED,COc1ccc2c(=O)c3cncc4ncc(c2c1)n43,1.5282,192.523,272.8216024,0.705673592
RISSAP,Nc1oc2ccccc2c1-c1ncnc2c1cnc1oc3ccccc3c12,1.536,268.586,380.6579818,0.705583523
WILNOX,NC1=CC(=O)C(N)=CC1=O,1.5283,105.829,149.9928583,0.705560259
MINPUR,Cn1cnc2c1N=CN1CC(=O)N=C21,1.5574,142.235,201.5933212,0.705554128
FUGSUW,O=C(Nc1ncn[nH]1)c1ccccn1,1.5287,144.9,205.3780587,0.705528141
BZOXAZ,O=c1[nH]c2ccccc2c(=O)o1,1.5646,122.036,173.0298745,0.705288612
MODYUA,O=C1CC(N2C(=O)c3ccccc3C2=O)C(=O)O1,1.5776,181.864,257.9239607,0.705107038
QIMFUN,N#Cc1ccc(O)c(=O)cc1,1.4417,119.414,169.3565834,0.705103974
HAXMAW01,Cc1ccc(N2C(=O)N(c3ccc(C)c(N=C=O)c3)C2=O)cc1N=C=O,1.4999,271.692,385.3799391,0.704997776
CEVKUM01,O=C(O)c1ccc(C(=O)[O-])c(NC(=O)C2CCC[NH2+]2)c1,1.5342,212.181,301.0016327,0.704916442
PYDSYD14,O=c1c[n+](-c2cccnc2)[n-]o1,1.5455,123.484,175.1803272,0.704896503
EQIXEI,O=c1[nH]ncn2c1nc1ccccc12,1.5491,140.587,199.4458328,0.70488813
VEXREV,Cn1c(=O)[nH]c(=O)[nH]c1=O,1.6411,102.016,144.7326494,0.704858236
UMUBUC,On1nnc2ncccc21,1.5679,101.556,144.0816066,0.704850553
YUYWEU,Cn1c(=O)[nH][nH]c1=O,1.6032,83.982,119.1569335,0.704801622
ANQDAZ,O=C1c2ccccc2C(=O)c2c1ccc1nonc21,1.5377,190.289,270.0220073,0.704716634
FIPLAU,NNC(=O)c1n[nH]c(N)n1,1.6052,103.563,146.9632126,0.704686555
UNUXUY,Oc1ccc(/C=N/n2cnnc2)c(O)c1,1.5262,156.447,222.0350433,0.704604992
KUNQUG,O=C(O)c1nc2ccccc2[nH]c1=O,1.5581,142.696,202.5395292,0.704534076
PITFOO,O=C(Nc1cccnc1)c1ccc(C(=O)Nc2cccnc2)cc1,1.462,254.563,361.3243835,0.704527598
ODANAI,CN1C(=O)N/C(=C\C#N)C1=O,1.5029,117.574,166.8866829,0.704513973
NAGGEK,Oc1ccc(-n2cnnn2)cc1,1.5153,125.114,177.5933079,0.704497267
PUCGLR10,O=C(O)CNC(=O)Nc1ncnc2c1ncn2C1OC(CO)C(O)C1O,1.6303,264.106,374.9495323,0.704377462
GPHXAM,OCC1OC(NO)C(O)C(O)C1O,1.623,140.57,199.5935682,0.704281211
QUISAL,[NH3+]C(Cn1oc(=O)[nH]c1=O)C(=O)[O-],1.6525,133.777,189.9651739,0.704218554
SIXDAE,N#[N+]/N=c1/cc(C(=O)C=[N+]=[N-])[n-]c([N-][N+]#N)n1,1.5667,171.699,243.8288062,0.704178488
AWOQOU,Cc1nn2c(ncc3c(=O)oc4ccccc4c32)c1C#N,1.521,212.213,301.4024215,0.704085252
UDOZUJ,COC(=O)c1c([O-])on(C)[n+]1=O,1.6184,125.718,178.5654665,0.704044306
ISOIND02,O=C1Nc2ccccc2/C1=C1\C(=O)Nc2ccccc21,1.4919,205.373,291.7088694,0.70403413
VULSUT,Nc1nc(=O)c2ccccc2c(=O)[nH]1,1.5363,143.858,204.3499213,0.703978739
JELREX,O=C1/C(=C2/N=CC=C[N-]2)[N+](=O)c2ccccc21,1.5095,174.29,247.5815729,0.703970001
GEMWUQ,O=C1C2=C[N+](=O)c3ccccc3C2=C([O-])c2[nH]c3ccccc3c21,1.5254,240.648,341.9058723,0.70384284
QIHPUS,O=C1C(=O)C(=[n+]2ccc(=C([O-])c3ccccc3)cc2)C1=O,1.4833,219.837,312.4085983,0.703684217
VUSQAC,O=C(Nc1ccncc1)Nc1ccc(O)cc1,1.4802,180.838,257.0049731,0.70363619
YEGZUI,CC1=C(C#N)C(=O)N(CCO)C(=O)/C1=N\Nc1ccccc1C(=O)O,1.5176,263.387,374.3313879,0.703619863
FOJNAT,[NH3+]C1CON(C2(C(=O)[O-])CCC(=O)O2)C1=O,1.6243,165.48,235.1951507,0.703585935
MOKBAR,O=C1c2ccc3c4c(ccc(c24)C(=O)N1Cc1ccncc1)C(=O)N(Cc1ccncc1)C3=O,1.5202,344.36,489.5035835,0.703488211
QOPKUB,O=CN(C=O)C(N(C=O)C=O)N(C=O)C=O,1.5844,168.86,240.0486021,0.703440881
FRURCL01,Cn1c(=O)[nH]c(N)c(NC=O)c1=O,1.5899,135.231,192.2444421,0.70343256
YOXFIA,Cn1c(=O)c2nc3c(nc2n(C)c1=O)c(=O)n(C)c(=O)n3C,1.5922,223.07,317.1556212,0.703345566
ZEBWEI,CON1C(=O)C(=O)c2cc3c(c4c2c1cc1ccccc14)OCO3,1.5593,240.489,341.9216427,0.703345357
TARGEY,CC(=O)N1C(=O)C(=O)c2ccccc21,1.5036,146.812,208.7816773,0.703184311
LUDSEK,N#Cc1cc2c([nH]c3ccccc32)c(C(N)=O)n1,1.4919,184.745,262.7639438,0.703083525
AMOXAC,CCn1cc(C(=O)O)c(=O)c2c(N)c3c(cc21)OCO3,1.5762,204.482,290.8574524,0.703031668
ZZZERO01,O=c1[nH]c2ccccc2cc1O,1.4935,125.882,179.0664713,0.702990343
JIWPOU01,N/C(=N\O)c1ccccn1,1.4654,109.18,155.3159745,0.702954093
UQOGEP,N#Cc1nc2ccccc2c(=O)[nH]c1=O,1.5027,154.616,219.9526157,0.702951404
HPHAUR10,O=c1cc(/N=N/c2ccc(O)cc2)[nH]c(=O)[nH]1,1.5558,174.102,247.6913731,0.702898925
MEWSUE,Oc1ccc(-c2nnn[nH]2)c(O)c1,1.5638,132.883,189.070402,0.702822856
MURCAC,Cc1[nH]c(=O)[nH]c(=O)c1CC(=O)O,1.571,136.722,194.5453751,0.702776923
EFUDER,O=C(O)c1cc(NC(=O)c2cccc(-c3cccnc3)c2)cc(C(=O)O)c1,1.4981,282.048,401.3664675,0.702719392
APMCOX,O/N=C\c1ccncn1,1.4764,97.242,138.3945005,0.702643527
VUZQUD,O/N=C1/C=CC=C/C1=N\O,1.4958,107.681,153.2518287,0.702640882
PUGWIA,c1nnc(Nc2nonc2/N=N/c2nonc2Nc2nncnn2)nn1,1.664,249.655,355.3427658,0.702575158
ULUKIY,O=C1NC(=O)c2c1ccc1c2CCO1,1.5471,142.558,202.9113374,0.70256301
CILBUU,O=C([O-])C[NH+](CC[NH+](CCN(CC(=O)O)CC(=O)O)CC(=O)O)CC(=O)[O-],1.5566,294.625,419.4048142,0.702483591
IWODIH,[NH3+]C1=C([O-])OC(C(O)CO)C1=O,1.5997,127.647,181.7120891,0.702468397
ZERMOY,NC(=O)Cc1cc(=O)[nH]c(N)n1,1.547,126.726,180.40613,0.702448414
ROKYUL,O=c1[nH]cc(C2OC(CO)C(O)C2O)c(=O)[nH]1,1.6222,175.489,249.8470421,0.702385742
BEWZOV,O=C1c2ccccc2C(=O)c2c1ccc1nc(-c3ccccc3O)[nH]c21,1.5083,262.981,374.4247206,0.702360142
OHPOXZ,O=[n+]1o[n-]cc1-c1ccc(O)cc1,1.5405,134.789,191.9179749,0.702326085
AHOKOA,N#Cc1ccc(C2=C(O)C(=O)OC2)cc1,1.4821,158.179,225.2556037,0.702220045
HEABZQ,O=C1C=C(NCCO)C(=O)C=C1NCCO,1.4993,175.847,250.4194956,0.702209705
YUZYOH,N#CC1=CC2=C(CCCC2=O)NC1=C(C#N)C#N,1.4383,191.374,272.5561621,0.702145197
KOYLIT,O=[n+]1[n-]c2ccccc2[n+](=O)[n-]1,1.5876,120.467,171.5759046,0.702120734
BAGQUV,O=c1ccnc[nH]1,1.4833,75.484,107.5111856,0.702103689
ECANUT,Cc1cc(=O)[nH]c2c1C(=O)c1c(C)cc(=O)n(C)c1C2=O,1.5302,216.436,308.288303,0.702057126
SIGBAL,O=C(O)CNC(=O)NCC(=O)O,1.5994,128.298,182.7795045,0.701927715
USIWEZ,O=C1NC2(O)C(=O)c3ccccc3C2(O)N1,1.5962,160.685,228.9264405,0.70190669
TOZTEK01,O=c1oc2ccccc2cc1-c1nnc(-c2ccncc2)o1,1.5222,222.865,317.5282669,0.70187452
ADUQAR,Cc1cn(C2OCC(O)C(O)C2O)c(=O)[nH]c1=O,1.599,188.069,268.0276798,0.701677529
YECYUA,COc1c(O)c2nccc3c4ccccc4n(c1=O)c23,1.5291,202.673,288.9506361,0.701410465
INOSIN12,O=c1[nH]cnc2c1ncn2C1OC(CO)C(O)C1O,1.6201,192.733,274.7823751,0.701402337
MUDHIF,Cc1nnc2c3c(nn(CCC#N)c(=O)c13)-c1ccccc1-2,1.4751,228.261,325.4514374,0.701367312
XUPPON,O=C([O-])C[NH2+]CC(=O)C(O)C(O)CO,1.5469,155.884,222.2946288,0.701249512
NEKCIP,O=C([O-])C1[NH2+]C(C(=O)O)C(C(=O)O)C1C(=O)O,1.6511,174.154,248.4541788,0.700950174
GEFVEV,O=C(O)c1ccc(-n2ccnn2)cc1,1.502,146.505,209.0165008,0.700925522
LUKBOJ,O=C(O)CC[n+]1ccc(C(=O)[O-])cc1,1.5013,151.212,215.7498659,0.700867179
WOVVUY,O=CNc1ccc(C(=O)O)cc1,1.4901,128.899,183.9270721,0.70081581
AHARFU01,O=c1ccn2c(n1)OC1C(O)C(CO)OC12,1.6167,162.726,232.1973947,0.700808897
OYUKAW,Cc1cn(C)cc2c(=O)n3nc(N)nc3nc12,1.5384,174.055,248.3685165,0.700793331
JUJBIB,O=C1C=C(NCCO)C(=O)c2cnccc21,1.5022,168.934,241.0635185,0.700786254
ZAQNIQ,O=C(Nc1cccc(O)c1)c1cccnc1,1.4538,171.36,244.5258372,0.700784841
CEGXES,c1cnc(-c2nnc(-c3cnccn3)o2)cn1,1.53,171.928,245.3566985,0.700726742
KELKIV,O=C1C=C(C2OC(CO)C(O)C2O)C(=O)N1,1.5943,167.176,238.5841892,0.700700246
YIRLAN,O=C(N/N=C/c1c(O)ccc2ccccc12)c1cc(O)cc(O)c1,1.5033,249.283,355.7982769,0.70063015
DIVDER,O=C1C([NH+]=c2c(=O)c3ccccc3c2=O)=C([O-])c2ccccc21,1.5027,234.597,334.8972341,0.700504442
ZAPKIM,O=C(O)c1cccc(Oc2cccc3ccc[nH+]c23)c1C(=O)[O-],1.5183,236.757,338.0301769,0.700401965
VAPZOB10,Nc1ccnn2c(C3OC(CO)C(O)C3O)nnc12,1.5909,195.264,278.7987111,0.700376265
METQEI,CCN1C(=O)N/C(=C\c2coc3ccccc3c2=O)C1=O,1.5111,218.639,312.1850051,0.700350742
CADBER,Cc1nc(-c2nonc2/N=N/c2nonc2-c2noc(C)n2)no1,1.6229,236.52,337.7245876,0.700333966
RIWPIW01,O=C1C=C/C(=N\O)c2cccnc21,1.4952,135.367,193.2956696,0.700310567
CEJMAF,N#C/C(=N\O)c1ccccn1,1.4355,119.115,170.1010384,0.700260276
FILHUD,O=C(O)CNC(=O)c1cccnc1,1.5087,138.778,198.1817651,0.700256151
ZDGLPN,N#[N+][N-]C1C2COC(O2)C([N-][N+]#N)C1O,1.601,154.026,219.9603046,0.700244529
BUGDAI,O=C1Cc2cc(O)ccc2N1,1.4974,115.744,165.2922231,0.700238631
JIJXOP,O=C1NC2OCC(O)C(O)C12,1.5944,115.996,165.657096,0.700217515
HXNIPA10,O=C([O-])C1C[NH2+]CCC1O,1.5096,111.734,159.5851266,0.700152968
TAMCRT,[NH3+]C/C=C/C(=O)[O-],1.422,82.618,118.0026546,0.700136792
GUACET01,NC(=[NH2+])NCC(=O)[O-],1.5296,88.972,127.0787031,0.70013305
FUTDED,O=c1cn[nH]c2ccccc12,1.47,115.511,164.9845783,0.700132104
IYORUL,O=C(O)Cn1nnc(-c2cc(C(=O)O)ccn2)n1,1.5821,182.983,261.4070565,0.69999258
DEXGIW,O=CNC(=O)c1ccn2c1NC(=O)CC2,1.54,156.281,223.2799531,0.699932966
UXUYUJ,O=C(O)c1ccc(N2C(=O)C3C4C=CC(C3C2=O)C2C(=O)N(c3ccc(C(=O)O)cc3)C(=O)C42)cc1,1.5569,362.867,518.484262,0.699861166
GAKNOV,Nc1ncn(C2OC(CO)C(O)C2O)c2ncnc1-2,1.5953,194.579,278.0297558,0.699849552
OROWUQ,Nc1ccc(O)c2c1C(=O)c1ccccc1C2=O,1.509,184.104,263.0749626,0.699815741
DOGQAR,COC(=O)C12CNC(=O)C1(C(=O)OC)CNC2=O,1.5837,187.9,268.5035497,0.699804529
DOCMEO,O=c1c2cc3c(=O)n(-c4cnccn4)c(=O)c3cc2c(=O)n1-c1cnccn1,1.5598,277.174,396.1046307,0.699749456
JIJCOU,COc1ccc([N-][N+](=O)c2ccccc2)cc1,1.4561,182.018,260.1236528,0.699736445
WARXOC,O=C(O)CCNC(=O)NCC(=O)O,1.5628,141.301,201.9528589,0.699673185
VOTKIY,O=C([O-])C1C(O)C(O)C2C(O)CC[NH+]12,1.5791,149.416,213.5606397,0.699642033