name,smiles,Density,Vint,Veff,pc
XOZHAW,COCCOc1ccccc1-c1nnc(-c2ccccc2OCCOC)o1,1.3631,293.365,450.9396662,0.650563749
PALZIM01,CCN(CC)c1ccc(/C=N/C(C#N)=C(\N)C#N)c(O)c1,1.2963,235.967,362.7152518,0.650557149
EVOTEO,CC(=O)Oc1ccccc1N1C(=O)C2C3C=CC(O3)C2C1=O,1.4214,227.31,349.4098817,0.650554011
POVHUD,O/N=C(\Cn1ccnc1)c1ccc2ccccc2c1,1.3321,203.642,313.029348,0.65055242
ZEQZEA,O=C1C=CC2(O)C(CCN3C(=O)OCC32)C1,1.4378,167.617,257.6533947,0.650552267
EBOCON,COc1ccc(OC)c2c1CC1(C2)NC(=O)C2(Cc3ccccc3C2)NC1=O,1.3834,295.306,453.9316928,0.650551624
PUTWEG,COC(=O)c1cc(OC)c2[nH]c3ccccc3c2c1,1.3692,201.266,309.3789772,0.650548405
MEGNUI,COC(=O)C1=C(C)NC(=O)NC1c1cccc(OC)c1,1.3834,215.614,331.4369946,0.65054295
KOLSAG,O=C(/C=C/c1ccncc1)/C=C/c1ccncc1,1.2889,197.883,304.181314,0.650542919
COBKAH,CCOC(=O)/C(C(=O)c1ccccc1)=C1\OC(N)=NC1=O,1.4085,220.944,339.6355813,0.650532547
TIHCIX,COc1ccc(C2=Nc3ccccc3N=C(c3ccccc3O)C2)cc1,1.3355,276.749,425.4229998,0.650526653
WIRNIU,CC([NH3+])C(=O)NCC(=O)NC(C)C(=O)[O-],1.3882,168.946,259.7080023,0.650522889
SUCCIN01,O=C1CCC(=O)N1,1.4083,75.963,116.7738311,0.650513897
LOBHOC,O=c1c2ccccc2nc2cc(-c3ccccc3)n(-c3ccccc3)n12,1.3421,271.343,417.1253878,0.650507037
FAVYAC,O=C(NN1C=NN(C(=O)c2ccccc2)C1)c1ccccc1,1.3641,232.907,358.0396222,0.650506217
VITCAE,COC(=N)c1oc(C)c(C(=O)OC)c1C#N,1.3804,173.776,267.1396499,0.650506206
MADYEZ,O=c1c2ccccc2nc2c(-c3ccccc3)nc(-c3ccccc3)cn12,1.3471,279.958,430.3698188,0.650505653
YAFDUF,COc1cc2nc(c1)CC(=O)Cc1cc(OC)cc(n1)CC(=O)C2,1.3719,256.79,394.7561241,0.650502891
YIBLUT,CC(C)n1c2ccccc2c2ccc3c(c21)C(=O)C1OC1(c1ccccc1)C3=O,1.3516,304.609,468.2711313,0.650497072
FURLUC,COC(=O)c1cccc(Nc2ccc(Nc3cccc(C(=O)OC)c3)cc2)c1,1.3503,300.907,462.5801045,0.650497064
NEZQOA,OCC1OC(n2cc(-c3cc4ccccc4c4ccccc34)nn2)CC1O,1.3842,281.829,433.2563722,0.650490144
POMYUN,CN1C(=O)C(c2ccccc2)=c2nc3c(nc21)=C(c1ccccc1)C(=O)N3C,1.3583,292.754,450.0568632,0.650482248
BUFCEM,O=c1[nH]c(N2CCCCC2)nc2ncnn12,1.4407,165.029,253.7031403,0.650480714
OVIHIM,Cc1ccc(-c2[nH]c3c(-c4ccccn4)cccc3c2N2CCOC2=O)cc1,1.3565,293.952,451.903218,0.650475563
YUKDUE,CC(=O)N(C(C)=O)c1ccc2c3c(cccc13)C(=O)c1ccccc1-2,1.3583,261.717,402.3500582,0.650470889
YUVTEP,Cc1ccc(NC(=O)C(=O)c2ccccc2)cc1,1.3133,196.651,302.3228054,0.650466973
CUVVAT,COC(=O)C1(O)C(OC)=C(C2=C(OC)C(=O)N(C)C2=O)C(=O)N1C,1.4445,254.311,390.9688883,0.650463522
QUDMUY,COc1ccc(-c2cn(-c3ccccc3OC)nn2)cc1,1.3485,225.176,346.1786713,0.650461795
CIKPAQ,COC(=O)C1=C(O)C(=O)N(c2cccc(C)c2)C1c1ccccc1,1.3677,255.183,392.3126619,0.650458231
VEPYUN,Cc1cc(C)nc(NNC(=O)Cn2nnc(-c3ccccc3)n2)n1,1.3902,251.85,387.1922749,0.650452027
OCAMEK,Cc1cccc2nc(OCc3ccccc3)oc(=O)c12,1.3645,211.428,325.0486592,0.650450306
PAKNEU,CC(C(=O)c1ccccc1)c1nc2ccccc2[nH]c1=O,1.3451,223.322,343.3365841,0.650446269
KOWXOJ,C/C(=N\O)c1ccccn1,1.3016,112.911,173.5919779,0.650439043
OKEYIO,COC(=O)c1ccc(-c2ccc3nc(-c4ccccc4O)cn3c2)cc1,1.3624,272.817,419.4356893,0.650438213
CIPRAU,CCOC(=O)c1cc(C#N)c2nc(C)ccc2c1O,1.3584,203.622,313.0553636,0.650434471
AZELUP,N#CC1=C(N)OC2(c3ccccc3)Cn3cccc3C12C#N,1.3508,230.367,354.1758253,0.65043118
AXADUZ,N#C/C(=C\c1ccccc1)COc1ccccc1C=O,1.2956,219.332,337.2143719,0.650423049
OYANOS,O=C1N/C(=C\c2ccccc2)C(=O)N1/N=C/c1ccccc1,1.3431,234.096,359.9150843,0.650420086
XOPYOS,CNC(=O)NC=C1C(=O)OC(C)(C)OC1=O,1.4349,171.676,263.9492066,0.650413018
QUYZUG,COc1cccc(C(=O)N/N=C/c2c(O)ccc3ccccc23)c1,1.3531,255.513,392.8643729,0.650384758
LUJKOS,Nc1ccccc1C(=O)N/N=C(/c1ccccc1)c1ccccn1,1.3307,256.58,394.5062612,0.65038258
SUTLEB,Cc1cccc2c(-c3ccccc3)c3cc(-c4ccccc4)oc(=O)n3c12,1.3391,283.191,435.4265682,0.650376024
JOXQEV,O=C(N/N=C/c1cccc2cccnc12)N/N=C/c1cccc2cccnc12,1.3612,292.091,449.1117332,0.650374903
YUNSUV,CN1C(=O)C23C(=Nc4ncccc41)c1ccccc1N2C(=O)c1ccccc13,1.403,281.827,433.3321801,0.650371731
ONOBOK,COC1=CC(=O)N2c3c(C)cccc3CC2CC1=O,1.3603,204.124,313.8637683,0.650358597
ECOHAH,O=C1c2ccccc2C2(O)c3[nH]c4ccccc4c3CCN12,1.3922,225.046,346.034506,0.650357106
SABSEV,CC1OC(=O)N(c2ccccc2)C1=O,1.385,148.979,229.0767643,0.650345313
PIBZUW,OCCn1cnc(-c2ccccc2)c1-c1ccncc1,1.3219,216.598,333.0515039,0.650343858
BIDJUT,O=NN1C(=O)C2CCC1CC2,1.4023,118.652,182.4542981,0.650310797
EGEVIX,c1ccc(-c2cn(CC3Cn4nncc4CO3)nn2)cc1,1.3881,219.484,337.5068819,0.650309703
OYUNAZ,N#Cc1ccc(Oc2ccccc2C2OCCO2)cc1C#N,1.3535,233.041,358.3568571,0.650304286
XICVOX,Cc1ccc(/N=C/c2c(O)ccc3ccccc23)cc1,1.2968,217.44,334.3678081,0.650301837
XELLOP,COc1cccc(C=C(C#N)C#N)c1,1.2696,156.56,240.7499359,0.650301316
ULEMIJ,N#Cc1ccccc1Oc1ccccc1/N=C/c1ccccc1O,1.3195,257.062,395.3040085,0.650289383
KABKOP,CC(C)(C)OC(=O)Oc1ccc(C#N)cc1,1.3104,180.544,277.6404881,0.650279796
UXAMOX02,O=C(CCCCC(=O)N/N=C/c1ccccn1)N/N=C/c1ccccn1,1.337,284.432,437.4007655,0.650277783
COFJEP,COC(=O)C1(O)C=Cc2nc3ccccc3c(=O)n21,1.4252,195.529,300.6884457,0.650271079
KUZYUA,N#Cc1cccc(C2OC2C(=O)Nc2ccccc2)c1,1.32,216.041,332.2330688,0.650269405
PUHYOI,COCCNC(=O)c1cn(C)n2c(=O)ccnc12,1.3991,193.027,296.8529796,0.650244442
ROZYIR,C/C(=N\N=C(/C)c1cc2ccccc2o1)c1cc2ccccc2o1,1.3365,255.402,392.7802676,0.650241423
OCAJAF,CC(=O)N1c2ccccc2NC(=O)C(O)C1c1ccccc1,1.3655,234.158,360.1101304,0.650239969
FUFYEK,O=C([O-])CC[NH+](CCO)CCC(=O)O,1.3817,160.278,246.494025,0.650230771
PHISCY03,O=c1n(-c2ccccc2)c(=O)n(-c2ccccc2)c(=O)n1-c1ccccc1,1.377,280.028,430.6601986,0.65022958
RUPFUG,COc1cccc(C2Nc3ccc4[nH]ncc4c3C(c3cccc(OC)c3)C23C(=O)N(C)C(=O)N(C)C3=O)c1,1.3994,405.231,623.2307733,0.650210191
UJULUJ,CN1C(=O)C(Cc2c(O)c3ccccc3oc2=O)(C(=O)c2ccccc2O)Cc2ccccc21,1.3947,352.352,541.9088802,0.650205252
JEPMAS,CNC(=O)c1cccnc1,1.3134,111.856,172.032373,0.650203204
ZAHXIT,COc1ccc(C(=O)/C=C2\NCCOC2=O)cc1,1.381,193.175,297.1096675,0.650180796
JAGGUW,N#CC1=C(N)Oc2c(c(=O)oc3ccccc23)C1c1ccccc1,1.3835,246.67,379.3931376,0.650169904
SONYAV,CC1(C)Oc2ccc(C#N)cc2C(n2ccccc2=O)C1O,1.3548,235.977,362.9542242,0.650156368
YAKMOP,CNC1=CC(=O)c2nc(C)c(C)cc2C1=O,1.3455,173.393,266.6955412,0.650153352
UVOMEA,CCn1c2ccccc2c2c(-c3ccccc3)c(-c3ccccc3)c(=O)oc21,1.3298,296.451,455.9739103,0.65014904
HURZOK,COC(=O)c1c(N)c2ccccc2c2cc(OC)ccc12,1.3611,222.974,342.9603144,0.650145193
XEBGAN,N#Cc1ccc(Oc2ccnc3ccccc23)cc1C#N,1.3242,221.008,339.9383911,0.650141337
NATSAF01,COc1ccc(-n2cc(-c3ccccc3)nn2)cc1,1.3286,204.049,313.8539776,0.650139921
KUJROY,O=c1c(-c2ccccc2)c(O)nc2n1CCN2c1ccccc1,1.3741,239.727,368.7332349,0.650136677
BEXTEG,Oc1ccc(CNc2ccc(/N=C/c3ccccn3)cc2)cc1,1.3148,248.913,382.8639881,0.650134272
XAXQUL,COc1cc(/C=C/C(O)=C2C(=O)N(C)C(=O)N(C)C2=O)cc(OC)c1OC,1.4078,288.439,443.6685472,0.650122714
LODVEI,Cc1ccc(C(=O)c2cc(C(=O)c3ccc(C)cc3)n3ccccc23)cc1,1.3108,290.851,447.3809169,0.65011937
FIKHAI01,CC(=O)OCC1OC(n2cnc3c(N)ncnc32)CC1OC(C)=O,1.4399,251.258,386.4887851,0.650104245
SONFUZ,O=C(c1ccccc1)c1ccccc1C(=O)N1C(=O)c2ccccc2C12C(=O)c1ccccc1C2=O,1.3742,370.097,569.2958689,0.650096058
KEKJEQ,O=C1c2ccc3c4c(ccc(c24)C(=O)N1c1ccccc1)C(=O)N(c1ccccc1)C3=O,1.4025,321.819,495.0368269,0.650091029
HECBAU,O=C(CC(c1ccccc1)C1CCc2ccccc2C1=O)c1cccc[n+]1[O-],1.3287,301.55,463.8633624,0.650083677
OTAWAJ,COC(=O)C1(C(=O)OC)C=Cc2c(OC)nc3ccccc3c2O1,1.4123,251.547,386.9480632,0.650079491
FAVYIN,C#CCOC(=O)C(=C)C(O)c1ccccn1,1.319,177.66,273.2925754,0.650072545
VEGLAV,Cc1ccc(/N=N/c2ccc(O)c(C(=O)c3ccccc3)c2)cc1,1.3222,258.097,397.0283073,0.650072036
RUCCAV,Cc1ccccc1C12OC13C(=O)N(Cc1ccccc1)CC(=O)N3c1ccccc1C2O,1.3759,334.354,514.3381813,0.650066458
TIDHEV,CCCN1C(C(=O)OC)=C(C(=O)OC)C23C(=O)c4ccccc4C12OC(N)=C3C#N,1.4062,314.07,483.1438886,0.650054792
LABYUI,CC(=O)OC1(C#N)CC2OC1C1C2N1C(=O)c1ccccc1,1.3894,231.6,356.2812363,0.650048266
KUVDEK,COC(=O)c1cnn(N)c1C,1.381,121.211,186.4651504,0.650046401
FUTTAS,CC(=N\O)/C(C)=N/n1cnnc1,1.363,132.323,203.5614284,0.650039652
YUDMAL,O=C1OCCC12CC(c1ccccc1)=NO2,1.3822,169.527,260.796489,0.650035592
TAPDUJ,COc1c[n+](=O)cc(C)[n-]1,1.3665,110.637,170.2021762,0.650032817
VEMKIK,N#Cc1ccc2c(c1)C1(c3ccccc3-2)c2ccccc2N2c3ccccc3Oc3cccc1c32,1.3496,356.835,548.9502526,0.65003158
AXAGEM,COc1ccc(C(=O)CC(C#N)C#N)cc1,1.2961,178.289,274.2779587,0.650030359
FONDET,COC(=O)c1nc(-c2ccccc2)nc(C(=O)OC)c1-c1ccccc1,1.3622,275.851,424.3673016,0.650028876
GEVKOI,O/N=C/c1ccnc2ccccc12,1.3302,139.627,214.8014724,0.650028133
TIPQAN,Cc1ccc(-c2oc(-c3ccccc3)c3c(=O)n(C)c4ccccc4c23)cc1,1.33,296.344,455.9053428,0.650012124
YEDVEJ,N#Cc1ccc(Oc2ccccc2C=O)cc1C#N,1.321,202.692,311.8289733,0.650010157
POWBEI,CC(=O)N(C(C)=O)n1nc2c(n1)C(=O)c1ccccc1C2=O,1.422,226.258,348.0839536,0.650009854
ZIVLAT,Cc1cc(O)c2nc(C)ccc2c1,1.3043,143.237,220.3660174,0.649995864
VORNIZ,CC(=O)c1c(N)n[nH]c1C,1.3443,111.666,171.7973796,0.649986631
WEVLEO,N#CC1=CC=CCC(=O)N1,1.3102,110.431,169.8978248,0.649984778
TAHMUL,CN1C(=O)c2cccc3c2C2(C1=O)C(c1ccccc1)=CC2C=C3,1.3481,250.692,385.6916614,0.649980347
HOGVIK,O=C(N/N=C(/c1ccccc1)c1ccccn1)c1ccccc1O,1.3429,254.882,392.139056,0.649978614
DESNIY,O=C1CCC(=O)N1C1C(O)C2CCOC21,1.4302,159.298,245.0893936,0.649958767
BISKIZ,O=C(C(=O)c1c[nH]c2ccccc12)c1ccccc1,1.3351,201.36,309.8049223,0.649957394
FOVSOB,COc1cc(C2CCC(=O)Nc3c2c(=O)n(C)c(=O)n3C)cc(OC)c1OC,1.4085,298.208,458.8121498,0.649956633
BUPMUW,COC(=O)c1cc(-c2ccccc2)c[nH]1,1.3256,163.72,251.8948037,0.64995386
BODSOC,CC1=NCC(=O)Nc2ccccc21,1.3319,141.066,217.0403987,0.649952731
CIPWIH,COc1ccc2c(c1)c(C1=C/C(=C3\C(=O)N(C)c4ccccc43)C(=O)N1C)cn2C,1.3559,317.733,488.8577764,0.649949771
NIVMIQ,CCOC(=O)c1cc2ccccc2c2nc3ccccc3nc12,1.3561,240.442,369.9405938,0.649947597
UGECOA,CC1CC(NC(N)=O)NC(=O)N1,1.4248,130.364,200.5773864,0.649943657
CUPZEV,COC(=O)C(O)C1(O)CC(=O)N(CCc2ccc(OC)c(OC)c2)C1=O,1.4121,280.601,431.7333232,0.649940565
KANTUQ,Cc1ccc2oc(/C(C#N)=C/c3ccccc3)nc2c1,1.3042,215.241,331.171366,0.649938437
GITBER,CN(C)c1ccc(/C=N/NC(=O)c2cccc(O)c2)cc1,1.3273,230.227,354.2297346,0.649936969
XAFQAY,COc1cc2c(c(OC)c1)C1(O)c3ccccc3C(=O)N1CC2,1.3951,240.687,370.3238677,0.649936504
HUCWOS,COc1ccc(/C=N/NC(=O)c2ccc(O)cc2)cc1,1.3493,216.043,332.4159153,0.649917739
GIZSOY,O=C(N/N=C/c1ccccc1O)c1cccc(O)c1,1.3649,202.491,311.5645146,0.64991676
DIZLAB,COc1ccc(C#Cc2nc3ccccc3nc2-c2cn(C)c3ccccc23)cc1,1.3196,318.272,489.7144286,0.649913463
ECELED,CNC(=O)/N=C1\C(NC)=NC(=O)N1C,1.4016,151.762,233.5115373,0.649912213
HUPPAM,COc1ccc(/C=N/NC(=O)CC#N)cc1,1.334,175.628,270.2335541,0.64991189
XAKNUU,COc1nc2ccccc2cc1C#N,1.3163,150.914,232.2085531,0.649907154
ZISSUR,N#Cc1ccc(COCc2cccc(COCc3ccc(C#N)cc3)n2)cc1,1.3025,305.87,470.6385529,0.649904259
DEYZEP,CC1=NN(C(N)=O)C(=O)C12C(C(=O)c1cccc3ccccc13)C2C(=O)c1cccc2ccccc12,1.3643,375.869,578.3474413,0.649901725
VETVEY,C/C(=N\OCc1ccccc1)c1ccc(/N=C/c2c(O)ccc3c(C)cc(=O)oc23)cc1,1.3383,343.659,528.7886898,0.649898545
XAFWEI,CCOC(=O)C1CCC2(CC1)NC(=O)NC2=O,1.4069,184.187,283.4091536,0.649897851
XENGED,O=C(Nc1cccc2ccccc12)C(=O)Nc1cccc2ccccc12,1.3378,274.378,422.1895858,0.649892866
MIRMOR,Cc1ccc(N2C(=O)C3CN(C)C(c4cccnc4)C3C2=O)cc1,1.3495,256.824,395.1818564,0.649888136
MINSAN,COc1ccccc1NC(=O)/C=N/O,1.3688,153.009,235.4406908,0.649883414
XEMWOB,O=C1C(=O)N(c2ccccc2)C(=O)/C1=C(/NCCO)c1ccccc1,1.3695,264.862,407.5545368,0.649881123
CUJTAC,CN(C)c1ccc(C(=O)C(O)c2ccccc2)cc1,1.2986,212.018,326.2452774,0.649873009
EVESEE,O=C(O)CNCc1cccc(O)c1,1.3594,143.747,221.1941349,0.649868045
PEKREC,COc1ccccc1C1=Nc2cccc3cccc(c23)N1,1.342,220.426,339.1863517,0.64986695
WEMYAP,O=C(N/N=C/c1c(O)ccc2ccccc12)c1cccc(C(=O)N/N=C/c2c(O)ccc3ccccc23)n1,1.3814,393.074,604.854802,0.649865056
BOSBOD,CNc1cc(/C=C/C(=O)/C=C(O)/C=C/c2ccc(O)c(NC)c2)ccc1O,1.3476,293.219,451.2035498,0.649859692
GIQYOU,O=c1nc(-c2ccccc2)c2ccccc2n1-c1ccccc1,1.3243,242.925,373.8144561,0.649854483
YUXFOP,COC1=Cc2ccc3cc(OC)c([nH]3)c3nc(ccc4cc(OC)c([nH]4)c1n2)C=C3OC,1.3867,334.759,515.1298139,0.64985367
VIPBAZ,O=C(Nc1ccccc1)Nc1ccc2ncccc2c1,1.3198,215.129,331.0453057,0.649847608
CIDROW,CCOC(=O)N1N=C2CCc3cc4c5nc3CCC2=CC(=C1CC4)CC5,1.3834,272.379,419.1460838,0.649842646
ABUGIN,COC(=O)C1(OC)c2c(n(C)c3ccccc3c2=O)C1(OC)C(=O)OC,1.4045,277.458,426.9629632,0.649840909
PEYRAN,Cc1cn(CCCC#N)c(=O)[nH]c1=O,1.344,155.03,238.5693164,0.649832101
APAQEP,Cc1ccc(O)c(/C=N/NC(=O)c2ccncc2)c1,1.3444,204.762,315.0999329,0.649831938
MESFOI,Oc1ccc2ccccc2c1/C=N/c1ccccn1,1.3322,200.962,309.2527364,0.649830951
WADQAV,O=Cc1cn(-c2ccccc2)nc1-c1ccccc1,1.3157,203.482,313.1310295,0.649830201
TAZZIF,CN(C)c1ccc(C2c3c(c4ccccc4oc3=O)Oc3c2c(=O)oc2ccccc32)cc1,1.3936,338.475,520.8754101,0.649819503
MUFLAA,COc1ccccc1N/N=C(/C(C)=O)C(=O)O,1.3865,183.736,282.7507835,0.64981606
BAMBOJ,O=C1OC2(c3ccccc3)c3ccccc3C(=O)N2c2ccccc21,1.3818,255.43,393.0850307,0.649808515
AJUJIB,COc1ccc2cc(C(/C=C/c3ccc(-c4ccccc4)cc3)=C(C#N)C#N)ccc2c1,1.2839,346.402,533.0857929,0.64980535
POJLOR,CC/C(=N\NC(=O)c1ccccc1O)c1ccccc1O,1.3529,226.608,348.7347054,0.64980054
NAJNAP,CN1C(=O)c2ccc3ccccc3c2OC12C=Cc1ccc(O)c(C=O)c1O2,1.4167,284.174,437.327306,0.649797065
FERXEG,Nc1oc2ccccc2c1C(=O)Cc1ccccc1O,1.3652,211.1,324.8819921,0.649774395
GARLIW,O=C1C2C3CCC(O3)C2C(=O)N1N1C(=O)C2C3CCC(O3)C2C1=O,1.4912,240.303,369.8274199,0.649770642
EDEQAG,COc1cccc(/C=N/c2cccnc2)c1O,1.3403,183.62,282.5979638,0.649756982
REKCEP,O=C(O)CCCCNC(=O)C(=O)NCCCCC(=O)O,1.3818,224.989,346.267351,0.649755166
LILMAV,c1ccc(-c2nc3ccccc3o2)nc1,1.3578,155.803,239.7873904,0.649754767
REKDAM,O=C(O)CCCCNC(=O)NCCCCC(=O)O,1.3692,204.998,315.5009279,0.649754032
JONYES,Cc1cccc2c1C(=O)c1c(cccc1-c1c(C)noc1C)C2=O,1.3539,252.714,388.9392748,0.649751816
AJICIH,COc1ccc(N2C(=O)C3(C)C(O)=CC(=O)CC3CC2c2ccccc2)cc1,1.3521,300.973,463.2175086,0.649744439
VEXYUV,Cc1cc(-c2ccccc2)c(C#N)c(=O)n1C,1.2996,186.049,286.3435638,0.649740464
XOHFEG,N#[N+][N-]C1C(=O)N(CCN2C(=O)C([N-][N+]#N)C2c2ccccc2)C1c1ccccc1,1.3687,317.018,487.9221483,0.649730702
AYUVEX,O=C(c1ccccc1)c1ccc(/N=C/c2cccc(O)c2O)cc1,1.3348,256.32,394.5047079,0.649726087
QUINCB10,NC(=O)c1ccc2ccccc2n1,1.3382,138.727,213.5173507,0.649722374
SOXREE,O=C1NC(=O)C2C1CC=CC2c1cc2ccccc2[nH]1,1.3758,208.684,321.19119,0.649718941
BESPUL,COc1cc(C)c(=O)[nH]n1,1.3752,109.883,169.1254173,0.649713105
AKAWIT,O=C1OCC(Cc2ccccc2)N1C(=O)N1CC2OC2c2ccccc21,1.3891,271.94,418.5590142,0.649705276
QOVPAV,Cc1c(N)cccc1C(=O)Oc1ccc(C#N)cc1,1.3201,206.028,317.1126814,0.649699656
QODNOM,COC(=O)c1cc(OC)c(=O)n(C)c1OC,1.4056,174.298,268.2754737,0.649697855
GOLWOU,N#CCC(=O)c1c[nH]c2ccccc12,1.321,150.328,231.3823759,0.649695118
LUGPOV,O=C(Nc1ccc(O)cc1)c1ccccn1,1.3547,170.488,262.4135692,0.649692013
BZOAZA10,O=C(O)C1CCN1C(=O)C1CCCN1C(=O)OCc1ccccc1,1.3856,258.61,398.0564885,0.649681659
ATUDOK,CCN1C(=O)C2(OC(=O)C(OC)=C2C(=O)OC)c2ccccc21,1.4137,241.984,372.4690879,0.64967539
FIZDEX,N#[N+][N-]C1C(=O)OCC2OC(c3ccccc3)OC21,1.4366,196.059,301.7827313,0.64966938
EXEMOM,N#Cc1ccc(CN2C(=O)c3ccccc3C2=O)cc1,1.3405,210.918,324.6553244,0.64966746
NIJGAP,COC(=O)C1(C(=O)OC)C(N(C)c2ccccc2)=CC(=O)c2ccccc21,1.3673,288.091,443.4496976,0.649658804
UMOGAH,COC(=O)C1=[N+]([O-])OC(c2ccccc2)C1,1.3891,171.688,264.2767707,0.649652255
QOMGUX,N#CC1(C#N)c2ccccc2N2CCOCC2C1c1ccccc1,1.3201,257.536,396.4220677,0.649651019
SOMKEN,O=C1c2ccccc2C(O)C12c1ccccc1-c1c(-c3ccccc3)c3ccccc3c(=O)n12,1.3636,349.003,537.2185839,0.64964804
COMRUR,CC(=O)/C(C(=O)c1ccccc1)=C(\N)C(=O)c1ccccc1,1.3216,239.257,368.2888046,0.649645053
BARCOX,CCC1(C2=CC(=O)CCC2)C(=O)NC(=O)NC1=O,1.4067,191.798,295.2359066,0.649643203
XIVDUD,c1ccc2[nH]c(-c3ccc4c(c3)OCO4)nc2c1,1.3966,183.899,283.0775185,0.64964184
GIYFAV,O=C(c1ccncc1)c1ccncc1,1.3188,150.566,231.7683641,0.64964
AGARUX,CCOC(=O)Cn1c(=O)c2c(c(C(=O)OCC)n3c4ccccc4ccc23)c2ccccc21,1.3849,344.417,530.1747844,0.64962916
RAVNUX,O=C1C=C(N2CC2)C(=O)C(c2ccccc2)=C1N1CC1,1.331,215.677,332.0021333,0.649625344
XIBGOG,c1ccc(-c2oc3nc4ccccc4nc3c2-c2ccccc2)cc1,1.3394,259.431,399.3555952,0.649624052
ECUQUP,COc1ccc(Oc2nc3c(ncn3-c3ccccc3)c(=O)n2-c2ccccc2)cc1,1.3787,320.911,493.9979553,0.649620098
MALREX,CCOC(=O)C1C(=O)NC2(C(=O)OCC)C(=O)NCCC12,1.4274,225.301,346.8209592,0.649617602
GARMET,CCOc1cccc(/C=N/c2ccc(/C(C)=N/O)cc2)c1O,1.3284,242.104,372.6871209,0.649617297
IKALIP,COc1ccc(C(=O)C2CC3(OC(=O)c4ccccc43)ON2c2ccccc2)cc1,1.3756,314.565,484.232605,0.649615488
TAJHOB,Cn1c(=O)n2n(c1=O)C1CC2C1,1.4349,125.602,193.3483676,0.649615001
EMZHAN,CC1C2OC2(C)Cn2c(=O)c3ccccc3c(=O)n21,1.3981,199.146,306.5600418,0.649614995
LOHNIH,CCN1C(=O)C(C#N)=C(C)/C(=N/Nc2ccc(OC)cc2)C1=O,1.3571,248.101,381.9248341,0.64960688
RAZDEB,O=C1c2ccccc2C(=O)C12OC1(O)c3ccccc3C(=O)C1(O)C2c1cnc2ccccc2n1,1.4271,350.811,540.0363315,0.649606294
JEVREI,Cc1cccc(/C=N/c2ccccc2/N=C/c2cccc(C)c2O)c1O,1.3085,283.721,436.7593465,0.649604874
GOQMOR,O=C(Nc1cccnc1)C1CCC(C(=O)Nc2cccnc2)CC1,1.3508,258.868,398.5029717,0.649601178
SESZOI,COc1ccc2c(c1)CCc1c3c(c4c(c1-2)-c1ccc(OC)cc1CC4)C(=O)N(N)C3=O,1.3852,331.869,510.8850012,0.649596287
OJOSAI,CCOC(=O)/C=c1\[nH]c2cccc3cnn(c1=O)c32,1.4126,196.314,302.213731,0.649586633
DLABUT12,CCC([NH3+])C(=O)[O-],1.3216,84.12,129.4998209,0.649576188
VAWCAA,CCOC(=O)c1nc2ccc3ccccc3c2nc1C,1.355,211.839,326.1216526,0.649570485
FXMCDM,Cc1[n-]o[n+](=O)c1C(=O)N(C)C,1.4044,131.389,202.2710966,0.649568832
HOYLOZ,C#CCn1c(C)nc2c(c1=O)C(c1ccccc1)C(C(=O)OCC)=C(C)O2,1.3432,292.426,450.1896331,0.649561826
UDUTOD,COc1ccc(/C(C#N)=C(/C)O)cc1OC,1.3201,179.018,275.6004058,0.649556373
XITCUB,CN1c2ccccc2C(=O)N2CCC(=O)N2C1c1ccccc1,1.3602,243.554,374.9621575,0.649542881
VILKUY,COC(=O)c1c(C(=O)O)nn2ccccc12,1.4028,169.197,260.4878702,0.649538882
QUKFEJ,Cn1c2c(c(=O)n(C)c1=O)-c1cccc3c1C2c1ccccc1CC3,1.3731,259.334,399.2609543,0.64953509
PUMWEA,CCC12C=CC(C)(O1)C1C(=O)NC(=O)C12,1.3899,160.708,247.4227611,0.649527955
EHAHAY,O=C(NC(Cc1ccccc1)C(=O)Nc1cccnc1)c1cccnc1,1.3447,277.646,427.4596754,0.649525595
DSZNDO10,O=C1NCCC12CCNC2=O,1.4022,118.517,182.4673102,0.649524564
SEMYOY,COc1ccnc2c1cnn2C1CC(O)C(CO)O1,1.4262,200.493,308.6772183,0.649523153
CAYQAU01,O=C1C=Cc2ccccc2/C1=C/NCCO,1.333,174.044,267.9565944,0.649523108
XULHUJ,COC(=O)c1ccccc1NC(=O)Nc1ccccc1C(=O)OC,1.3766,257.078,395.7959418,0.649521566
AMOADC,Nc1ncnc2c1ncn2C1OC(CO)C2C1OCN2Cc1ccccc1,1.4196,279.722,430.6607345,0.649518235
CIGJAD,COCN1COCN/C1=N\C#N,1.3967,131.341,202.2162752,0.649507562
HDXMOR,CN1CCC23c4c5ccc(O)c4OC2C(=O)C=CC3(O)C1C5,1.4267,226.128,348.1542215,0.649505265
QETROX,O=c1nc(OCc2ccccc2)nc(OCc2ccccc2)[nH]1,1.3739,242.665,373.6154694,0.649504691
DAYZUZ,COc1cc(C2CC(C)=NN2C(C)=O)ccc1O,1.3508,198.112,305.0204197,0.649504057
YODXUM01,Oc1ccc(O)c(/C=N/c2cccc3ccccc23)c1,1.3352,212.526,327.2131068,0.649503322
HURQUJ,Cc1ccc(-n2cnc3ccc(C)cc3c2=O)c(C(=O)c2ccccc2)c1,1.3346,286.197,440.6411032,0.64950137
XUQTEJ,O=C1c2ccccc2-c2c(-c3ccccc3)[nH]c(=O)c3cccc1c23,1.3582,256.567,395.0308793,0.649485935
MEKZUY,Oc1cc(O)c(NCc2ccccn2)cc1NCc1ccccn1,1.3532,256.752,395.3226615,0.64947453
DADWAJ,c1ccc2cc(-c3cnco3)ccc2c1,1.3264,158.613,244.2178891,0.649473307
XEVCAF,CCOC(=O)C(O)c1ccc(NC(=O)c2ccc(OC)cc2)c2ncccc12,1.3839,296.251,456.1426913,0.649470014
EBETEN,NC(=O)N1CCC(C(=O)O)CC1,1.4096,131.664,202.727019,0.64946449
FUJYIS,CCOC(=O)C(O)(O)c1nc2ccccc2[nH]c1=O,1.4368,198.22,305.2076256,0.649459527
YAHWOV,O=Cc1ccc(Oc2ccc(-c3nnn[nH]3)cc2)cc1,1.3805,207.87,320.0674188,0.64945692
MEWRIR,COc1ccc(-c2noc(C)c2C(=O)O)cc1,1.3861,181.344,279.2252091,0.649454255
WILWEW,COC(=O)C(C(=O)OC)c1cc(C)cc(C(C(=O)OC)C(=O)OC)c1-c1cn(Cc2ccccc2)nn1,1.3745,399.519,615.1647875,0.649450372
VEFFET,CC1(C)OC2=C(C(=O)C(=O)c3ccccc32)C1[N-][N+]#N,1.3879,209.089,321.9499361,0.649445695
VEXMOA,O/N=C(\c1ccccc1)c1ccccn1,1.3088,163.218,251.3222089,0.649437233
SIJYIV,C1=C(c2ccccc2)N2c3ccccc3COC2c2ccccc21,1.3298,252.319,388.5277201,0.649423418
UTEKUA,Cn1c(=O)c2c(nc(-c3cn(Cc4ccccc4)c4ccccc34)n2C)n(C)c1=O,1.3682,314.629,484.4766212,0.649420398
WAMTEK,O=CN1CCn2c1nc(-c1ccccc1)cc2=O,1.3856,187.639,288.9332861,0.649419811
TICZOU,Nc1ccccc1-c1n[nH]c(=O)o1,1.4245,134.038,206.3991466,0.6494116
DUFPOM,O=C(c1ccccc1)c1c(Cc2ccccc2)c2ccccc2[nH]c1=O,1.321,276.846,426.3077345,0.649404122
KATVEJ,COC(=O)CCn1cc(C)c(=O)n(Cc2ccc(Cn3c(=O)c(C)cn(CCC(=O)OC)c3=O)cc2)c1=O,1.3934,407.248,627.1123065,0.649402022
IFIBOO,Cn1ncc2c(=O)n(Cc3ccccc3)c(=O)n(C)c21,1.3789,211.246,325.2936751,0.649400883
YOWBIY,CCCCNc1c2c(c(C(=O)OC)c3nc4ccccc4nc13)C(=O)c1ccccc1C2=O,1.3787,343.493,528.9459739,0.649391463
GIGPIW,NNC(=O)CNc1ccccc1,1.3285,134.007,206.3596583,0.649385646
TIXVUU,CN1C(=O)C(CO)(C2(C(=O)/C=C/c3ccccc3)COCO2)c2ccccc21,1.3669,299.109,460.6065988,0.649380623