name,smiles,Density,Vint,Veff,pc
ZERMAK,Nc1nc(=O)cc(-c2ccccc2)[nH]1,1.3853,148.117,224.2517992,0.660494143
CAGGAV,O=C1c2ccccc2C(=O)C12C(c1ccco1)C(c1ccco1)N1CCCC12,1.4025,291.797,441.7982291,0.660475712
DUXXIE,O=C(OCc1ccccc1)N1C(=O)c2cccc3cccc1c23,1.3883,239.442,362.5372726,0.660461746
OFEPAR,O=C1c2ccccc2C(=O)N1c1ccc(Cc2ccc(N3C(=O)c4ccccc4C3=O)cc2)cc1,1.3925,360.816,546.3304321,0.660435478
MCBURL10,CNC(=O)N1CCC(=O)N(C)C1=O,1.4405,140.907,213.3591923,0.66042151
LAGTOC,CCOC(=O)Nc1ncn2c1CN(C)C(=O)c1ccccc1-2,1.4152,232.576,352.164353,0.660418915
VOBFOK,CCN1C(=O)C2Oc3cc4ccccc4nc3C2C1=O,1.4277,205.928,311.8173327,0.660412294
NIKFOD,N#Cc1ccc(Oc2ccccc2)cc1C#N,1.3152,183.499,277.857146,0.660407704
JEHHIN,NC(=O)C12OC1/C=C\C=C/C=C\2c1ccccc1,1.3404,195.615,296.2104896,0.660391873
YEMZOI,C=C(CN1CC(C(=O)OC)=Cc2c(ccc3c2OCO3)C1)C(=O)OC,1.4125,267.944,405.7404082,0.660382832
LUQWID,c1coc(-c2nc3ccccc3nc2-c2ccco2)c1,1.3911,206.597,312.8462816,0.660378634
CUJTEG,CN(C)c1ccc(C(=O)C(O)c2ccco2)cc1,1.3525,198.734,300.9402469,0.660376942
APOBUD,Cn1c(=O)c(CC(=O)O)c(O)c2ccccc21,1.4231,179.599,271.9654714,0.660374271
REGLUL,NN1C(=O)C2C3C=CC(C3)C2C1=O,1.4401,135.6,205.3399501,0.66036833
IZECIC,COC(=O)c1ccc(-n2c3ccccc3c3ccccc32)cc1OC,1.3682,265.391,401.8851576,0.660365269
OMUREW,C#CCOc1ccc(/N=C/c2c3ccccc3cc3ccccc23)cc1,1.3118,280.153,424.240404,0.660363787
PEQVUC,O=c1nc2n(c(=O)[nH]1)CC(COc1ccccc1)O2,1.4712,194.599,294.6853396,0.660361999
YAYNIW,COc1cccc(/C=N/c2cnccn2)c1O,1.3804,181.985,275.585889,0.660356743
VOFFAZ,O=C(Nc1ccccc1)Nc1ccc(O)cc1,1.3743,181.996,275.6065276,0.660347205
ZEDDIV01,Oc1ccc2ccccc2c1/C=N/c1ccc2ccc3cccc4ccc1c2c34,1.3562,300.08,454.4316194,0.660341374
VIMKUA,COC(=O)n1nc2c3ccccc3c3ccccc3c2c1C,1.3785,230.769,349.4735141,0.660333303
FUFDUF,Nc1ccc(Nc2ccccc2)c2c1C(=O)c1ccccc1C2=O,1.3844,248.795,376.7723485,0.660332429
DUGMUN02,N#C/C(=N\O)c1ccccc1,1.3224,121.102,183.3993724,0.660318508
LIWBUP,N#Cc1cccc(/N=C/c2ccccc2O)c1,1.3224,184.134,278.875459,0.66027323
FIZLEI,CCOC(=O)c1c(-c2ccccc2)c(C#N)c2c(C#N)c(N)nn2c1N,1.3953,271.982,411.9280858,0.660265734
FADYER,Cc1cc[n+]([O-])c2ccccc12,1.3318,130.955,198.3398469,0.660255627
OCAVOF,CC(=O)/C(=N/Nc1ccccc1C(=O)O)C(=O)Nc1ccccc1,1.4038,253.92,384.5786071,0.660255135
MELVUV,CN(C)c1ccc(/C=N/NC(=O)c2cnccn2)cc1,1.3548,217.799,329.8740717,0.660248921
OFECEH,COC(=O)c1nnc(-c2ccccn2)n1-c1ccccc1,1.3967,219.873,333.0188731,0.660241859
ADEPAB,O=C1OC(Nc2ccccc2)c2ccccc21,1.3726,179.783,272.305225,0.660226039
VEBWAD,Cc1nn(-c2ccccc2)c2c1C(C(=O)c1ccccc1)=C1C(=O)N(c3ccccc3)N=C1CO2,1.392,362.422,548.9446619,0.660215911
CEMLEL,COc1ccc2c(c1)C(C)(O)C1=NCCc3cc4c(c-2c31)OCO4,1.4293,247.844,375.404763,0.660204729
FOYLEN,Cc1ccccc1/N=c1\oc2ccccc2cc1C(N)=O,1.3699,222.568,337.1209864,0.66020215
LUBDUK,COc1ccc(-c2cc(-c3ccccc3)n3nc(-c4ccc(OC)cc4)nc3n2)cc1,1.3704,326.527,494.5915165,0.660195311
FUQZEY,CC1=CC(=O)/C(=C(O)/C=C/c2ccc(N(C)C)cc2)C(=O)O1,1.3694,239.467,362.7220883,0.660194148
ADIPAM10,NC(=O)CCCCC(N)=O,1.3531,116.743,176.8351568,0.660179808
GOCYOO,N#Cc1cc(C(=O)c2ccccc2O)cnc1-c1c[nH]c2ccccc12,1.3751,270.347,409.5053086,0.660179476
XAKZUE,COc1nc2ccccn2c(=O)c1C,1.3933,149.554,226.5393399,0.660167899
POMJUY,Cc1cccc2cc3c(=O)n(C)c(=O)n(C)c3nc12,1.4004,199.699,302.4995357,0.660162997
CAWWAA,COc1cc2c(cc1OC)-c1c(OC)c(OC)cc3ccnc(c13)C2=O,1.4184,271.369,411.0648498,0.660161043
RICDAJ01,CCOC(=O)C1=C(C)NC(=O)NC1c1ccccc1O,1.4113,214.473,324.8848141,0.660150892
ZUMKOH,O=C1OC2C(C3OC3OC23CO3)N1Cc1ccccc1,1.4629,206.134,312.2542935,0.660147848
TECGUE,COc1nc(OC)nc(On2nnc3ccccc32)n1,1.4784,203.232,307.8596025,0.660145074
WELVER,COc1cccc(/C=N/n2c(C)nc3ccccc3c2=O)c1O,1.3937,243.124,368.3075938,0.660111288
CODMAL,O=C1C(c2ccccc2)=C2C(=C(c3ccccc3)C(=O)N2c2ccccc2)N1c1ccccc1,1.3547,356.15,539.541747,0.660097206
NIGTAZ,O=C1N=C2OCC(c3ccccc3)N2C2CCC12,1.3937,190.418,288.4698566,0.660096698
AFURPO10,CC(=O)N1CCC=C2OC(=O)C=C21,1.4207,138.154,209.2940935,0.660095073
JOGZAI,N#CC1(C#N)C2C=C3C=C(c4ccccc4)OC3(CC2)C1(C#N)C#N,1.3529,262.594,397.8138111,0.660092719
GAGVAO,O=C(c1ccccc1)c1c[nH]cc1C(=O)c1ccccc1,1.3369,225.548,341.7025509,0.660071162
JUZCAI,Nc1nncc(CC(O)C(O)CO)n1,1.4459,151.685,229.8022099,0.66006763
ROXLEY,CCOC(=O)c1cc2ccc3ccccc3c2c(C#N)c1N,1.3617,233.522,353.7851504,0.660067275
LUZDOC,NNc1ncccc1-c1nc(C2CC2)no1,1.4054,169.319,256.5178706,0.660067073
FIXPOR,C/C([N-]O)=C1/C(=O)ON=[N+]1c1ccccc1,1.4227,168.774,255.6957391,0.660057929
FORAMO,N/C=N\O,1.3782,47.744,72.33329095,0.660055686
HUGKEC,COc1ccc(-c2onc3c4ccccc4c(=O)c4ccccc4c23)cc1,1.3792,280.618,425.1497129,0.660045136
UDEYOU,N#[N+][N-]C1OCOC2C3OC(=O)CC3OC12,1.5474,160.829,243.664365,0.66004317
IPUYOJ,COc1cccc(-c2nnn3c2C(=O)OCC3)c1,1.4317,187.624,284.2634046,0.660035717
HESRAZ01,COc1cccc(C(=O)CCn2nnc3ccccc32)c1,1.3638,225.924,342.2950126,0.660027145
HESPIE,COc1cc2c3c(c1OC)C(=O)C(=O)C1=C3N(CCC1)CC2,1.4248,230.095,348.6184923,0.660019492
LIKFER,OC(c1ccncc1)C(O)c1ccncc1,1.3621,173.876,263.4453056,0.660007965
VUHKOB,C/C(=N\NC(=O)c1ccncc1)c1cc2ccccc2o1,1.3687,223.483,338.6240591,0.659973779
WEZDIP,O=C1c2cccc3cccc(c23)C(=O)N1Cc1ccccn1,1.3898,227.174,344.2236659,0.659960434
FOGTEB,COc1ccc(C2=C(c3cc(OC)c(OC)c(OC)c3)C(=O)NC2=O)cc1O,1.4223,296.736,449.6406397,0.659940347
WIGPAF,CCOc1cccc(/C=N/NC(N)=O)c1O,1.4011,174.497,264.4156055,0.659934574
SIWDAD,CN1C(=O)c2c[nH]cc2C1=O,1.4373,114.402,173.3537086,0.659933964
GEVJOI,Nc1cc2oc3ccccc3c(=O)c2c2c1CCC2,1.3972,196.943,298.4309621,0.659928174
POHSEN,O=C1c2cccc3c(N4CCNCC4)ccc(c23)C(=O)N1c1ccncc1,1.4051,279.325,423.266832,0.659926502
MURWUR,O=C(Nc1cccc2cccnc12)c1cccnc1,1.3697,199.291,301.9925575,0.659920237
NUDQEJ,O=C1c2ccccc2-n2nncc2C2CCCN12,1.4118,186.37,282.4138723,0.659918008
WILTIV,[NH3+]C(C(=O)NC(C(=O)[O-])c1ccccc1)c1ccccc1,1.3634,228.363,346.0489826,0.659915247
MORRER,N#CC1OCCN2C(=O)c3ccccc3C12O,1.4287,176.468,267.4129051,0.659908316
MEJNIB,C/C(=N\NC(=O)NN)c1ccncc1,1.3836,152.936,231.754709,0.659904606
VOCBOF,COC(=O)c1c(C(=O)N2CCCC2=O)oc(=O)c2ccccc12,1.4446,239.002,362.1849378,0.659889396
FILFUB,N#Cc1ccc(OC2C3C4C3C3C2C43)cc1,1.3386,171.154,259.3791997,0.659860159
ZZZAWM10,N=C1c2ccccc2C(=O)N1c1ccccc1,1.3531,179.843,272.5481539,0.659857707
KAFFUW,O=C1c2ccccc2C2(O)C(=O)CCCN12,1.4181,167.73,254.194279,0.659849626
QIXMIU,COc1ccc(C(=O)N/N=C/c2ccccc2O)cc1,1.3701,216.009,327.3693851,0.659832623
BEYKAU,O=C(c1ccc(-n2cnc3ccccc32)cc1)c1ccc(-n2cnc3ccccc32)cc1,1.3651,332.421,503.7977221,0.659830296
ARAFPY10,O=c1ccn2c(c1)OC1C(O)C(CO)OC12,1.4966,164.776,249.726592,0.659825607
BAVLIV,COc1ccc(Nc2nnco2)cc1,1.4057,148.933,225.7167053,0.659822674
ABUTAS,C=CC(=O)Nc1ccc(C2=NCCO2)cc1,1.3549,174.745,264.845266,0.659800353
FUMQIN02,O=C(O)CNC(=O)Nc1ccccc1,1.4127,150.512,228.1243134,0.659780616
MESHUO,N#CC1CC(c2ccccc2N)=NO1,1.3569,151.052,228.945403,0.65977302
PAVDUO,COc1ccc2c(c1)Oc1nc(N)c(C#N)c(N)c1C2C1=C(O)CCCC1=O,1.4228,291.178,441.3321169,0.659770701
PEYZOK,O=CN(CCn1cnnn1)CCn1cnnn1,1.4432,180.001,272.8261046,0.659764579
PENXUE,O=c1oc(=O)n(Cc2ccc3ccccc3c2)c2ccccc12,1.3919,238.569,361.5996089,0.659760116
XAJRAD,CC(=O)OCCc1c(C)[nH]c(=O)[nH]c1=O,1.4269,162.838,246.8144657,0.659758736
QICWOO,O=C1NC(=O)C2c3ccccc3CC12,1.3994,146.452,221.9789649,0.659756208
BEPTUL,CC(=O)NC1C=CC(=O)O1,1.4147,109.228,165.5583022,0.659755497
BAPBUQ,O=c1c2ccccc2ncn1-c1ccccc1,1.3623,178.6,270.7075586,0.659752542
KOHCAM,O=c1[nH]c2ccccc2nc1Nc1ccccc1,1.3799,188.236,285.3192303,0.659738216
HICVUL,O=C(O)CCC(=O)Nc1ccccn1,1.3991,151.965,230.3418036,0.659736954
XUMCUG,O=C1CC2OC(=O)CC2N1,1.4834,104.164,157.8908791,0.659721452
MEKREC,COc1ccc2c(c1)NC1=C(C(=O)N(C)C1=O)C21C(=O)c2cccc3cccc1c23,1.4182,305.977,463.8146512,0.659696711
IKIGUE,COC(=O)n1nnn(C(=O)OC)c1=O,1.5392,143.791,217.9686592,0.659686583
FULSUA,NC(=O)C(C(N)=O)c1ccccc1,1.3656,142.849,216.5422249,0.659681963
WOXFIB,O=C1NCCN1c1cc2ccccc2cn1,1.3899,167.947,254.5921332,0.659670815
WIXXOR,COc1ccc(C2C(C(=O)O)CC(=O)N2C)cc1,1.395,195.61,296.5273399,0.659669358
WACPIC,CC(=O)C1=C(N)C(=O)C=C/C1=N\c1ccccc1C(C)=O,1.3675,225.978,342.5637985,0.659666903
QIBCEK,O=c1[nH]ncc2c1ccc1ccccc12,1.388,154.738,234.5701143,0.659666303
BAFJEB,COC(=O)C1=C(C)NC(=O)NC1c1cccc(OC)c1O,1.4233,224.818,340.8073445,0.659663014
BEGLAA01,c1ccc2nc(O/N=c3/cnc4ccccc4[nH]3)cnc2c1,1.407,225.073,341.2035645,0.65964434
FEDWAN,O=c1oc2ccccc2c2c1cnn2-c1ccccc1,1.4001,205.032,310.8352705,0.659616264
BEYPUR,CC(=O)Nc1ccc2ccc(N)nc2n1,1.3942,158.767,240.6994093,0.659606937
KISJUT,COc1ccc(-c2cc(=O)oc(C)n2)cc1,1.3746,172.973,262.2384018,0.659602098
PAHZOO,O=C(O)/C=C\c1nc2ccccc2o1,1.4127,146.571,222.2157076,0.659588836
ECAVOT,O=C(/C=C/c1ccccc1)N1CCOC1=O,1.3766,172.717,261.8574074,0.659584167
RILBUJ,N#CC(C#N)=C1NC(=O)[C@@H](c2ccccc2)C[C@@H]1C#N,1.3322,215.471,326.6920255,0.659553901
QEXKIO,COc1cc(NC(=O)C(=O)Nc2cc(OC)cc(OC)c2)cc(OC)c1,1.4059,280.558,425.3755072,0.659553724
UPUMIC,CCOC(=O)c1cc(C(=O)c2ccccc2)n2ccc3ccccc3c12,1.3624,275.839,418.2226017,0.659550677
IFOFEO,c1ccc(-c2nc3ccccc3n3nc(-c4ccco4)nc23)cc1,1.3879,246.291,373.4239533,0.659547942
ZUQNIK,CN1C(=O)CC2(C1=O)c1ccccc1C(=O)N2c1cccc2cccnc12,1.4016,279.05,423.1015222,0.65953438
VAKMIG,CC(=O)c1c(C)nc2ncccn12,1.37,139.96,212.2108157,0.659532831
AHUVEE,CC1(C)OC(=O)N(CCO)C(=O)C1NN1C(=O)c2ccccc2C1=O,1.4533,261.583,396.6240608,0.65952378
UQUDUG,O=C(O)c1cccc2c1C(=O)N(c1ccc(OCc3ccccc3)cc1)C2,1.3888,283.198,429.3977735,0.659523681
XOKGEJ,CN1C(=O)C2C3Cc4ccccc4CN3C3(Cc4ccccc4C3=O)C2C1=O,1.3986,291.413,441.8618332,0.65951159
FERTEE,Oc1ccccc1-c1ccc2cccnc2n1,1.3691,177.646,269.3630173,0.659504047
AFAFIX,COC(=O)C1=N/C(=N/Nc2c(C)cccc2C)C(=O)N1,1.4033,213.92,324.3649995,0.659503955
DIJHUA01,CN(C)/C(O)=C(\C#N)C(=O)Nc1ccccc1,1.3646,185.472,281.2296275,0.659503771
AVUZIB,COc1ccc2[nH]cc(/C=C3\C(=O)ON=C3C)c2c1,1.3962,200.868,304.579864,0.659492054
YUQWUD,COc1ccc(N=C2c3cccnc3-c3ncccc32)cc1,1.3612,230.989,350.2556527,0.659486858
VAKZAI,COC(=O)C1=C2C(=O)N(C)C(/N=C/N(C)C)=C2C(=O)N(C)C1=O,1.4318,244.84,371.2656117,0.659473952
CEXNEZ,Cc1ccc(O)c(/C=[NH+]/c2ccccc2C(=O)[O-])c1,1.3659,204.52,310.1264336,0.659472969
PAANQU,O=C1c2cccc(Nc3ccccc3)c2C(=O)c2cccc(Nc3ccccc3)c21,1.361,313.915,476.0185278,0.659459625
APIFAH,O=c1c(-c2ccccc2)nn(C/C=C\CO)c2ncnn12,1.4034,220.913,334.9917051,0.65945812
XAPBIZ,CNc1c(C)ccc2c1C(=O)c1ccccc1C2=O,1.3604,202.126,306.5037785,0.659456797
NEXMOT,C#CCOc1ccccc1C(n1cccn1)n1cccn1,1.3353,228.085,345.8703613,0.659452285
ZIFRIP,O=C1c2ccc3ccccc3c2C(=O)N1c1ccccc1,1.3715,218.039,330.6415982,0.659442131
INECUZ,O=c1c2cc3c(=O)n(Cc4ccccn4)c(=O)c3cc2c(=O)n1Cc1ccccn1,1.4271,305.47,463.2382868,0.659423041
KEXROW,CCOC(=O)/C(C#N)=C/C1=Cc2ccccc2OC1,1.3518,206.636,313.3612188,0.65941791
XEBYUA01,COc1ccc(/C=N/NC(=O)c2ccc(O)cc2)c(O)c1,1.3976,224.152,339.9327059,0.659401099
IPUYUO,O=C1c2cccc3cccc(c23)-c2nc(-c3ccccn3)n(-c3ccccn3)c21,1.3943,293.805,445.5700304,0.659391296
MEDOUR,Cc1cc(=O)[nH]c(=O)n1C1CC(O)C(CO)O1,1.4727,179.997,272.9782745,0.659382144
LEQPIH,c1ccc(-c2nnc(-c3ccccn3)o2)nc1,1.3984,175.45,266.0829004,0.659380966
GIMBOV,Cn1c(=O)c(-c2ccccc2)cc2ccccc21,1.3283,193.799,293.914466,0.659372105
XELSOZ,Cc1ccc2c(c1)C1(CC(=O)N(Cc3ccccc3)C1=O)N(c1cccc3cccnc13)C2=O,1.3797,354.861,538.1974769,0.659350917
YEDYOW,CC(=O)OC1CC(=O)N(CC(N)=O)C1,1.4316,153.02,232.0846335,0.659328443
THFURC10,O=c1ccn(C2CCCO2)c(=O)[nH]1,1.4516,137.327,208.2832858,0.65932799
WUMLEX,O=C(O)c1ccc(-n2cnc3ccccc32)cc1,1.3858,188.091,285.2836357,0.659312265
VIMKIO,COC(=O)c1nn2c3ccccc3c3ccccc3c2c1C(=O)OC,1.4092,259.561,393.6976651,0.659290169
NOSWAT03,O=C1c2ccccc2C(=O)N1Nc1ccccc1,1.3838,188.356,285.6959549,0.659288299
CUFTEC01,Cn1c2c(c3ccccc31)C(=O)c1ccccc1-2,1.3527,188.644,286.1383874,0.659275401
ZIVJET,CCOC1=CC(=O)/C(=N/O)C=C1,1.3795,132.58,201.0996148,0.659275256
TACTAZ10,CC(=O)N1CN(C(C)=O)CN(C(C)=O)CN(C(C)=O)C1,1.3991,222.345,337.2574688,0.659273761
MIFCEJ,NC(=O)CC(NC(=O)Cc1c[nH]c2ccccc12)C(=O)O,1.416,223.523,339.0465033,0.659269445
KERKUO,O=C1NC(=O)/C(=C/c2ccccc2)N1,1.3966,147.416,223.6073849,0.659262663
CEGVUH,O=C(O)c1ccc(NC(=O)C2CC2)cc1,1.3765,163.1,247.3997146,0.659257026
GIBZIA,O=[N+]1C=C([O-])OC(c2ccccc2)C1c1ccccc1,1.376,212.498,322.3320461,0.659251857
JAYBAN,O=C(NCCO)c1cnccn1,1.3973,130.895,198.5511863,0.659250657
PUVMUO,O=C1CC(c2ccccc2)C2=C(COC2=O)N1,1.4119,177.618,269.4242561,0.65925022
LUHFUR,CC(=N\NC(=O)c1ccncc1)/C(C)=N/NC(=O)c1ccncc1,1.3737,258.312,391.8293998,0.659246091
BOMLEW,Cc1ccc2c(c1)C(=O)C1(NC(=O)c3ccccc31)O2,1.4087,205.996,312.4737041,0.659242673
IGOYEK,COC(=O)c1noc(C(=O)c2ccccc2O)c1C(=O)OC,1.4476,230.694,349.93916,0.659240309
ESIROP,COc1cccc2c1CN2C(=O)c1ccccn1,1.3661,192.397,291.8477789,0.659237499
BENSES,CC(=O)c1cc(C(=O)O)n(-c2n[nH]cc2C#N)c1C,1.41,200.36,303.9431396,0.659202245
WATHOO,Cc1cc(C)n(-c2nc3c(c(=O)[nH]c(=O)n3C)n2C)n1,1.4386,208.579,316.4187807,0.659186536
MEJFOX,Cc1cc2nc3c(=O)n(C)c(=O)n(C)c3nc2cc1C,1.4036,210.651,319.5692852,0.659171609
DUPCEX,O=C1c2ccccc2CN1c1cc(-c2ccccc2)ccc1O,1.3534,243.535,369.4574618,0.659169255
YOVPAB,COC(=O)c1cc(C(=O)OC)n(CC#N)n1,1.4157,172.469,261.6460289,0.659169186
BUBMIX,COc1cccc(C(=O)NN=C(c2ccccn2)c2ccccn2)c1,1.3538,268.538,407.3944728,0.659159655
BEKVUI,CC(=O)Nc1cc2c(cc1O)-c1ccccc1C2,1.3656,191.646,290.7443909,0.65915631
XECLUP,COc1ccc(C#Cc2nc(C(N)=O)n(COCCO)n2)cc1,1.396,247.865,376.0344896,0.659154963
QIVGAE,O=c1[nH]c2c(c(=O)[nH]1)COCCC2,1.4642,136.108,206.4909284,0.6591476
QIWLEQ,O=C(N/N=C/c1ccc2ccc3cccc4ccc1c2c34)c1ccccc1O,1.3747,289.924,439.8484235,0.659145252
NOXBEH,C/C(=N\O)C(=O)NCCCNC(=O)/C(C)=N/O,1.3983,191.087,289.9098531,0.65912558
SISJAG,CN1C(=O)c2ccccc2OC12C=Cc1ccc(O)c(C=O)c1O2,1.4414,245.334,372.2114653,0.659125317
PEYFAA,COc1ccc2c(c1)OC1(C)OC(C#N)(C#N)C(C#N)(C#N)C21C,1.378,254.243,385.7351346,0.659112892
DAGFOI,O=C1OCC2C(O)C=CCN12,1.4599,116.249,176.3749014,0.659101715
MPYRDO10,Cc1ccc(O)c(-c2nc(C)ccc2O)n1,1.3804,171.334,259.9528041,0.659096564
HUYKEU,Cc1cn(C(CC(=O)O)C(=O)O)nc1C,1.4136,164.205,249.1366449,0.659096136
ULAFIX,O=C(N/N=C(\C=N\O)c1ccccc1)c1ccncc1,1.3732,213.683,324.206423,0.659095517
AYASIF,CC(=O)C(C(C)=O)=C(N)NC(=O)c1ccccc1,1.361,197.908,300.2750878,0.659088976
ETOZUK03,Oc1ccc(-c2cc(-c3ccccn3)nc(-c3ccccn3)c2)cc1,1.3483,263.915,400.4277853,0.659082635
RUGVUM,Cc1cc(-c2ccccc2)[nH]c(=O)c1C#N,1.3223,173.876,263.826444,0.65905448
OQOSAP,Cn1c(N)c(C(c2ccco2)c2c(N)n(C)c(=O)n(C)c2=O)c(=O)n(C)c1=O,1.4566,291.635,442.5107024,0.659046207
DUKHEX01,Oc1ccccc1C1=NCc2ccccc2O1,1.3802,178.472,270.8057904,0.659040561
JOTKEI,Cc1cc(C)n(CCO)c(=O)n1,1.3634,134.925,204.7308573,0.659035974
EDIBEB,O=c1c2ccccc2n(Cc2ccccc2)c2c(=O)c3ccccc3n(Cc3ccccc3)c12,1.3569,356.623,541.1337558,0.659029299
AWUREQ,Cc1cccc2c(=O)n(C)c(=O)[nH]c12,1.3946,149.156,226.3281674,0.659025351
AMBZAM10,NC(=O)c1ccc(N)cc1,1.348,110.463,167.6167052,0.659021426
XIMHEH,COC(=O)C1=C(C)NC(=O)C1,1.3965,121.51,184.3821829,0.659011614
AYOXAO,CN(C)c1ccc(C(=O)Oc2cc(=O)oc3ccccc23)cc1,1.387,243.88,370.0732799,0.659004617
KOKSUA,O=C(NCc1ccncc1)c1cnccn1,1.3698,171.034,259.5344696,0.659003023
EMIKIX,COC(=O)COc1cc(=O)[nH]c2ccccc12,1.4154,180.201,273.4450066,0.659002709
AROMID,CCOC(=O)c1cnn(-c2ccc3nccn3n2)c1C(=O)OCC,1.4302,251.823,382.131211,0.658996158
DEZWUA,COCC1OC(n2cc(C)c(=O)n(C)c2=O)C2OC12,1.4419,203.478,308.7708534,0.658993547
HTRYPT10,[NH3+]C(Cc1c[nH]c2ccc(O)cc12)C(=O)[O-],1.4175,169.905,257.82914,0.658982922
EKUBAQ,O=C(/C=C1\NC(c2ccccc2)=Nc2ccccc21)c1ccccc1,1.3384,265.012,402.1548659,0.658979966
YURNEE,CCOC(=O)/C(N)=C/c1cnccn1,1.3646,154.839,234.9678743,0.658979448
YURKUS,O=C(c1ccncc1)c1cc2ccccc2oc1=O,1.3823,198.748,301.6040791,0.658969867
HOHTIK,O=C1c2ccccc2C(O)(c2ccccc2O)N1c1cccc2cccnc12,1.3947,288.824,438.2975428,0.658967874
CACMUP,COC(=O)/C=C1/C(=O)Nc2ccccc21,1.3945,159.341,241.806037,0.658962042
PAQMAW01,COc1ccc(/C=N/C(C#N)=C(\N)C#N)cc1,1.3192,187.536,284.5948427,0.65895783
TEDNEX,CN(C=O)/N=N/N(C)C=O,1.3947,113.031,171.5307114,0.658954884
SECDOV,CN(CCO)c1ccc(/N=N/c2ccc(C#N)nc2)cc1,1.3396,229.64,348.4925294,0.658952433
LIHHOZ,CC(=O)Nc1cccc2c(=O)n(C)c3ccccc3c(=O)c12,1.3862,232.16,352.3179877,0.658950176
NIGVEG,O=C(C1=Cc2cc3ccccc3nc2N2CCCN=C12)c1ccccc1,1.3669,271.489,412.0061245,0.658944088
KOFGUH,O=c1ccn(C2COCC(CO)O2)c(=O)[nH]1,1.4895,167.551,254.273727,0.65893949
RESMAD,COCc1cn(C2CC(O)C(CO)O2)c(=O)n2ccnc12,1.4621,220.858,335.1829508,0.658917763
OJAQOH,OCc1cccc(/C=N/Nc2ccccn2)n1,1.3605,183.449,278.4158066,0.658902963
SEPKOO,Cc1cn(C2OC3(CO)COCOC2C3O)c(=O)[nH]c1=O,1.5194,216.107,327.9840753,0.658894795
GIDPAK,O=C1CCC(=O)N1c1ccccc1,1.3666,140.163,212.7251305,0.658892533
NAWKON,CCOC(=O)c1cc[n+]([O-])c2ccccc12,1.3857,171.402,260.1377694,0.658889328
UFEGAN,O=[N+]1c2ccccc2[N-]C12CCC1(CC2)[N-]c2ccccc2[N+]1=O,1.4091,248.574,377.2645214,0.658885174
RECZII,Nc1nc2ncn(C3CC(CO)C3CO)c2c(=O)[nH]1,1.4543,199.458,302.7257807,0.658873518
KIZRET,Cc1cn(C2OC3(Cc4cnnn4C3)C(O)C2O)c(=O)[nH]c1=O,1.5016,233.97,355.1084264,0.658869186
POHHUQ,Cc1ccc2oc(=O)c3c(C)cc(C)nc3c2c1,1.3634,191.87,291.21354,0.658863596
KAFHIM,CC1(O)c2ccccc2N2C(=O)c3ccccc3C21O,1.4088,207.428,314.8274387,0.658862521
UHIGAV,Cc1noc(CC2(O)C(=O)Nc3ccccc32)c1N,1.4197,199.674,303.0600161,0.658859597
NUXHIA,O=C(Nc1cccc2ccc[n+]([O-])c12)c1ccccc1,1.3735,210.367,319.2920646,0.658854457
AZUKAI,CCOC(=O)c1ccc(/N=N/c2ccc(C(=O)OCC)cc2)cc1,1.3572,262.899,399.0317762,0.658842267
OXEPAK,CCCCn1c2c(c3oc(=O)c4ccccc4c31)C(=O)c1ccccc1C2=O,1.3834,293.493,445.4784066,0.658826546
CEYJOH,Cc1c(-c2ccccc2)[n-]o[n+]1=O,1.3814,139.435,211.6424452,0.658823422
SEBWIG,COC(=O)C1C2C=CC3(O2)C1C(=O)N1c2ccccc2C2OCCC2C13,1.4465,267.082,405.3934127,0.658821756
TURWOS,Cc1ccc(N2CCN3C(=O)C(=O)N=C32)cc1,1.4066,178.178,270.4526954,0.658813919
GIJBEI,COC(=O)c1cc2c([nH]c3ccccc32)c(-c2cc(-c3ccccc3)c3cccc(OC)c3n2)n1,1.3887,361.712,549.0590185,0.658785281
UDUSAO,COc1ccc(C(=O)c2ccc(=O)n3c2NCCC3)cc1,1.3919,223.302,338.9634191,0.658779052
CUVJUY,O=NN1CCN(N=O)CC1,1.4574,108.138,164.151148,0.658770903
HAVDEN,O=C1CNC2=NC(=O)C(c3ccccc3)(c3ccccc3)N12,1.3914,228.87,347.4212661,0.658767964
VUNYUY10,O=C(O)CN1C(=O)c2ccccc2C1=O,1.4462,155.094,235.4344387,0.658756641
VULTEE,CN(C)/C(N)=N/c1nc(=O)c2ccccc2c(=O)[nH]1,1.4125,200.669,304.6180241,0.658756161
SAZBOL,C/C(=N\NC(=O)c1ccncc1)c1ccc(N)cc1,1.3509,205.777,312.3741902,0.658751608
FULNUY,CCN1C(=O)C(C2=C3C(=NC(=O)c4ccccc43)N(CC)C2=O)=C2C1=NC(=O)c1ccccc12,1.4141,348.213,528.5980737,0.658748144
EGOKET,C=C(NC(=O)c1ccc(C#N)cc1)C(=O)NC(=C)C(=O)NC(=C)C(=O)OC,1.38,291.798,442.9615237,0.658743445
NABDAZ,Cc1[nH]c2ccccc2c1/C=C/C(=O)c1cc2ccccc2oc1=O,1.3691,262.947,399.1761625,0.658724204
NINWAK,COc1ccc(N2C(=O)CCC2=O)cc1,1.3881,161.603,245.3322578,0.658710768
ISURAS,Cc1c2ccccc2cc(-c2ccccc2)[n+]1[O-],1.326,193.94,294.4242724,0.658709278
VUSPUV,O=C(Nc1ccncc1)Nc1ccncc1,1.3822,169.422,257.2061325,0.658701246
LIBNUH,CC(=N)c1cc(/C(C)=N/c2ccc(C)cc2O)c(O)cc1O,1.3613,239.552,363.6799908,0.658688974
AFUMAR,CCOC(=O)/C(C#N)=C/c1ncc[nH]1,1.3574,153.967,233.7483224,0.65868708
AEMCPB10,CC(=O)N1CCC23C4C(=O)C(CC1=O)C2C1C2CC(=O)N(C(C)=O)CCC15C4C5C3C2=O,1.447,331.225,502.8612239,0.658680734
USOHAM,Cc1ccn2c3c(c(C(=O)c4ccccc4)c2c1)C(=O)c1ccccc1C3=O,1.3799,289.399,439.375088,0.658660465
QEQNUV,O=C1OC(=O)c2c(N3CCOCC3)ccc(-c3ccccc3)c21,1.4072,240.252,364.7609716,0.658655993
FACVUB,CCn1c(=O)c(C(=O)O)c(O)c2ccccc21,1.4249,178.902,271.6219119,0.658643475
JUYKUL,COc1ccc(/C=N/c2ccc(/N=C/c3ccc(OC)cc3O)cc2)c(O)c1,1.3685,300.62,456.4281441,0.658635984
FAWBUD,COC(=O)c1cc2n(c1C(=O)OC)CC=C2,1.4117,171.274,260.0459462,0.658629763
TOFPAI,O=C1C(=O)N(Cc2ccccc2)C(=O)c2ccccc21,1.3825,209.699,318.3954482,0.658611802
EVOHON,C=C(C#N)C(O)c1ccc(C=O)cc1,1.3094,156.244,237.2364162,0.658600406
KEXJED,Nc1ccccc1N1C(=O)c2ccccc2C1=O,1.3843,188.091,285.5927634,0.658598621
BOQTIN,COc1ccc(C(=O)Nc2c(N=O)ccc3ncccc23)cc1,1.3873,242.085,367.593963,0.65856631
MBOXZO,Cn1c(=O)oc2ccccc21,1.3998,116.445,176.8170988,0.658561874
UDEHAO,COC(=O)C12C(=O)/C(=C(/[O-])OC)[N+](=O)N1OC1C=CC=CC2C1,1.4854,237.124,360.0688133,0.658551897
GUFLEY,CC(=O)/C(C#N)=N/Nc1ccc(C(C)=O)cc1,1.335,187.659,284.9578736,0.658549973
FUSQAN,CC(=O)CC1c2c(ccc3c2OCO3)C=C2c3cc4c(cc3CCN21)OCO4,1.4341,287.578,436.6891929,0.658541601
MOTPIX,COc1ccc(C2Nc3ccccc3-c3nc4ccccc4c(=O)n32)cc1,1.3942,278.555,422.9897623,0.658538397