name,smiles,Density,Vint,Veff,pc
TOVHUK,CCc1ccc(O)c(C(=O)c2cnc3c(c2)c(=O)[nH]c(=O)n3C)c1,1.4833,250.791,363.9664591,0.689049757
NUPVUR,CC([NH3+])(CC(=O)O)C(=O)[O-],1.5066,111.681,162.0844775,0.689029583
JIPHOI,COc1ccc2c(c1)c1ccccc1c1c3c(=O)n(C)c(=O)n(C)c3cn21,1.479,277.826,403.2226382,0.689013894
GILYUX,Oc1ccc2ccccc2c1/C=N/c1nc[nH]n1,1.4561,187.083,271.5230522,0.689013321
GAVKIA,N#Cc1cccc(C(N)=O)n1,1.4191,118.545,172.0668314,0.688947422
GIDTIW,NC(=O)NC(=O)Nc1ccn(C2CC(O)C(CO)O2)c(=O)n1,1.5783,226.953,329.4288592,0.688928713
ZIJQUH,C/C(=N\NC(=O)c1cnccn1)c1cnccn1,1.4551,190.336,276.2815791,0.688920342
CXMURD,O=C(O)Cc1cn(C2OC(CO)C(O)C2O)c(=O)[nH]c1=O,1.597,216.387,314.1050536,0.688900091
GABOBU10,[NH3+]CC(O)CC(=O)[O-],1.4708,92.603,134.4221638,0.688896811
HEVLOJ,CC(=O)c1cnc(NN)nc1C,1.437,132.208,191.9286823,0.6888392
TOMCOP,O=C1ON=C2COc3ccccc3C=C12,1.4946,153.865,223.3716915,0.688829453
EWIXOZ02,O=C1C=Cc2ccccc2/C1=N/Nc1nnn[nH]1,1.5022,182.805,265.3908516,0.688814248
VEZNEV,CCOC(=O)c1nc(C)[nH]c(=O)c1O,1.5232,148.704,215.9303918,0.688666374
MIGNUM01,O/N=C/c1cccc(O)c1O,1.4804,118.22,171.6715281,0.688640693
APOZIQ,O=c1oc2ccccc2cc1-n1cc(-c2ccccn2)nn1,1.4763,224.699,326.2937558,0.688640208
MFZCHZ,Cc1nonc1C(=O)NN,1.5184,106.976,155.3521435,0.688603309
ZUZGIN,CN1C(=O)/C(=C2/C(=O)N(C)c3ncccc32)c2cccnc21,1.469,227.369,330.1937782,0.688592624
NEVNEH,CCN1C(=O)N/C(=C\c2cnc3ccccn23)C1=O,1.4718,198.963,288.947588,0.688578165
RAMHOD,N#C/C(=C\c1ccc(O)cc1)c1ccncc1,1.3786,184.192,267.5068237,0.68855066
BEYFAM,NC(N)=NOCC[C@H]([NH3+])C(=O)[O-],1.4979,134.408,195.217715,0.68850309
WADCUA,Cc1cc(C(=O)NN)n[nH]c1=O,1.5063,127.564,185.2806766,0.688490577
QAPZAJ,Nn1nc2c(n1)C(=O)N(c1ccccc1)C2=O,1.5259,171.624,249.2804205,0.688477658
OFEPIZ,O=C(O)Cn1cc(C(=O)O)ccc1=O,1.5457,145.73,211.6788771,0.688448474
TMOPYZ,COc1nnc(OC)c2c(OC)nnc(OC)c12,1.5209,189.472,275.2408249,0.688386253
PHAZUR01,O=c1nc(-c2ccccc2)[nH]c(=O)[nH]1,1.4953,144.511,209.9530423,0.688301529
JOLFUO,OCc1cc(-c2cn(-c3ccccc3)nn2)no1,1.4712,188.073,273.2454267,0.688293313
XULMIA,CCOC(=O)c1c2[nH]c3ccccc3nc-2oc(=O)c1=O,1.5308,213.585,310.3145596,0.688285462
FOKGUJ,CN1/C(=C2\N=N[NH+]=C2C(=O)[O-])Nc2ccccc21,1.515,183.364,266.4365559,0.688208866
WOCMIN,Nc1ccc(C(=O)c2cnc3ncccn23)cc1,1.4486,187.831,272.9288391,0.68820503
EYOVET,COc1cc2nonc2c2nonc12,1.5863,138.337,201.0226699,0.688166166
CAMCIE,O=C1C=C/C(=N/c2ccc(O)cc2)O1,1.4677,147.179,213.8884855,0.688110908
HIDYEB,O=c1cc(NCCO)c2ccccc2o1,1.4626,160.205,232.8358451,0.688059864
WAYTIB,CC(=O)Nc1ccc2c(c1)/C(=C1/Nc3ccccc3C1=O)C(=O)N2,1.4757,247.037,359.0772548,0.687977299
TEZCOR,NC(=O)c1nc2n(n1)COCCO2,1.5785,133.199,193.6328402,0.687894676
WADQID,O=C(O)/C=C\C(=O)Nc1ccccc1O,1.476,160.244,232.9488305,0.687893559
REWFOP,O=C1c2ccccc2C(=O)N1c1ccccc1O,1.4641,186.511,271.1427625,0.687870103
AZOLOR,Cc1cc(C(=O)O)no1,1.5013,96.642,140.5055229,0.687816379
AKIPUH,c1ccc(-c2nnc(-c3nnc(-c4ccccc4)o3)o2)cc1,1.4599,226.943,329.9592243,0.687791046
KEZRUC,Cc1cn(C2OC(CO)C3OC32)c(=O)[nH]c1=O,1.5427,177.733,258.4221926,0.687762139
TIFKOJ,C=C1C(=O)OC2c3ccccc3C(=O)N12,1.491,153.994,223.9110195,0.687746411
NOKHEA,Cn1c2ccccc2c(=O)n2nc(-c3ccccc3)c(=O)cc12,1.4545,237.982,346.0496045,0.687710655
SEDNAQ,Cn1cnc2c1c(=O)[nH]c(=O)n2C,1.5224,135.072,196.4105906,0.687702224
ZILNUF,Cc1cc(C)n(C2=NNC(=C3C(=O)c4ccccc4C3=O)NN2)n1,1.4853,247.653,360.1352307,0.687666684
ZEDVAI,CCOc1ccc2c(-c3nc(-c4ccccc4)no3)cc(=O)oc2c1,1.4646,260.475,378.8056464,0.687621746
VIHQAG,COc1ccc2oc(=O)c3cn(C(C)=O)cc3c2c1,1.4818,198.081,288.0877732,0.6875717
XIQMIU,O=C1C(=O)c2ccccc2N=C1c1ccccc1,1.4164,189.481,275.590344,0.68754586
IJUTIT,Nc1nc(N)c2ncn(C3OC(CO)C(O)C3O)c2n1,1.578,204.1,296.8745048,0.687495884
QAKQOK,O=C(O)CCc1nc(-c2cccnc2)no1,1.4855,168.353,244.8861177,0.687474658
ZAMJUS,N#C/C(=C\c1ccco1)C(N)=O,1.4221,130.082,189.2191022,0.687467589
KINTIN10,c1coc(CNc2ncnc3[nH]cnc23)c1,1.4926,164.489,239.2891778,0.687406766
QERQUZ,O=C1CCCc2cc(=O)n3c(ccc4ccccc43)c21,1.4448,207.865,302.3912932,0.687404051
CIZQUX,O=C(N/N=C/c1ccccn1)c1ccncc1,1.4226,181.406,263.9094028,0.687379828
NAYJED,Cc1[nH]c(=O)[nH]c(=O)c1O,1.5546,104.288,151.7226557,0.687359442
OMEWAH,O=C1OCc2ccccc2C12Cc1ccccc1N1CCc3ccccc3C12,1.5052,278.424,405.06331,0.687359218
KAKMEP,CN1C(=O)c2cccc3c(C=O)ccc1c23,1.4405,167.241,243.3125743,0.687350419
BUYGOS01,NC(=O)c1cccc2nc3ccccc3nc12,1.4409,176.705,257.0876656,0.687333636
ESEFUE,O=C1NC2C(CC(O)C(O)C2O)c2cc3c(c(O)c21)OCO3,1.5914,221.681,322.5250125,0.687329638
SANZIR,COc1ccc2c(c1OC)C(=O)c1nccc3cc4c(c-2c13)OCO4,1.5159,252.285,367.0643221,0.687304608
KESWOU,O=C1NC(=O)C(=C2C=CC=CC=C2)N1,1.4589,147.122,214.0585879,0.687297816
ZUCJEO,CCOC(=O)c1c2[nH]c3ccccc3cc-2oc1=O,1.4928,196.542,285.9649399,0.687294044
NELVAB,NC(=O)Nc1cccnc1,1.4434,108.374,157.683268,0.687289155
HOCPAR,O=c1[nH]c2ccccc2nc1-c1ccc[nH]1,1.4564,165.409,240.669059,0.687288182
CAXMOD02,[NH3+]CCNC(=O)[O-],1.4615,81.259,118.2344672,0.687269981
CYGSGS,CN1CC(=O)NCC(=O)N(C)CC(=O)NCC1=O,1.4938,195.667,284.7155894,0.687236692
JELRIB,COC(=O)C1=[N+]([O-])c2ccccc2C1=O,1.5,155.987,226.9901902,0.687197098
SALHXA,O=C(NO)c1ccccc1O,1.4843,117.659,171.2204608,0.687178386
COMKAQ,N#CC1CC2COC(=O)C12,1.4368,108.841,158.3946095,0.68715091
YUJCAH,CC(=O)NC1=CC(=O)C=C/C1=N\O,1.47,139.748,203.3992034,0.687062671
RAFFEL,CC1c2c(n(C)c(=O)n(C)c2=O)OC12C(=O)N(C)C(=O)N(C)C2=O,1.5376,249.396,362.9937942,0.687053068
BEFQUB,O=C(O)/C=C\C(=O)NCCC(=O)O,1.506,141.699,206.2496873,0.687026496
DLTYRS,[NH3+]C(Cc1ccc(O)cc1)C(=O)[O-],1.4349,143.965,209.5555837,0.687001498
DAPJUA,Nc1nnnc2c1cnn2C1OC(CO)C(O)C1O,1.5846,193.003,280.9501324,0.686965328
SIMFOJ,O=C1CNC(=O)c2ncn(C3OC(CO)C(O)C3O)c2N1,1.5963,213.025,310.0986466,0.686958819
HOBYON,O=C(O)Cn1c(=O)cnc2ccccc21,1.4898,156.232,227.4474621,0.686892694
PHALIM01,O=C1NC(=O)c2ccccc21,1.4724,113.898,165.8254458,0.68685478
ZOKFUD,Cc1nn(-c2ccccc2)c2c1NC(=O)CO2,1.4687,177.906,259.0173358,0.686849779
URUXIR,CN1N=CC(=O)/C1=N\c1ccnn1C,1.4566,149.624,217.8419792,0.686846496
KUWCOX,O=C1CC(O)(C(O)CO)C2c3[nH]c4ccccc4c3CCN12,1.495,230.484,335.5929944,0.68679622
GUCLAU,O=C(O)c1cn(-c2ccccc2)nc1-c1nn(-c2ccccc2)cc1C(=O)O,1.4828,287.731,418.9593736,0.686775421
GEDYAR,O=c1cc(-c2ccccc2)[nH]c(=O)[nH]1,1.4664,146.255,212.963771,0.686760003
WAFGER,O=C(O)CN1C=CC(=C2N=NN=N2)C=C1,1.5057,155.314,226.1556708,0.686757044
CIQKET,O=C1c2cccc3cccc(c23)C(=O)N1/N=C/c1ccccc1O,1.4651,246.035,358.2625118,0.686745032
LACBOG,NNC(=O)C(O)C(O)C(O)C(O)CO,1.55,154.549,225.0757808,0.686653177
FENTOH01,C[NH+](CC(=O)[O-])CC(=O)O,1.4884,112.654,164.0664296,0.686636506
FADMIJ,O=c1oc(-c2ccccc2)c2cnc3ccccc3n12,1.4614,204.47,297.7969497,0.686608779
VELZES,O=C1Nc2ccccc2/C1=N/NC(=O)c1ccncc1,1.4672,206.773,301.1539474,0.686602323
WAFGUH,O=C([O-])c1cc(N/C=C2\C=[NH+]c3ccccc32)ccc1O,1.4592,218.849,318.7423286,0.686601622
CAHOAM,NOC(N)=O,1.5415,56.231,81.90132779,0.686570066
FEDWER,O=c1oc2ccccc2c2nn(-c3ccccn3)cc12,1.4753,203.299,296.1114164,0.686562519
ZEXSIH,Oc1ccc(/C=N/c2cccnc2)c(O)c1,1.4276,170.962,249.0134928,0.686557174
GAKYUN,CC(NN)=C1C(=O)N(C)C(=O)N(C)C1=O,1.5029,160.89,234.3457418,0.686549705
ENINOG,O=C(/C=C(\O)c1cccnc1)c1ccccn1,1.412,182.537,265.8773812,0.686545802
NUPPEU,COc1cccc(/C=N/NC(=O)c2ccc(O)cc2O)c1OC,1.4646,246.045,358.4087761,0.686492677
MIRTOW,COc1c2ccoc2nc2c(OC)c3c(cc12)OCO3,1.5371,202.516,295.0033293,0.686487168
BPCXIM,O=c1[nH]c(=O)c2ccccc2c2ccccc12,1.4336,177.377,258.3837634,0.686486634
GEMZED,NC(=O)CC(NC(N)=O)C(=O)O,1.5439,129.256,188.291653,0.686466967
AQOGAR,O=C1Nc2ccccc2C(=O)N2C(=O)CCC12,1.5016,174.649,254.4304858,0.686431107
OROBUU,c1ncn(-c2ccc(Oc3ccc(-n4cncn4)cc3)cc2)n1,1.4505,238.98,348.156163,0.686416113
PAWQIP,O=c1[nH]c2nc(Oc3ccccc3)nn2c2ccccc12,1.49,212.706,309.9196453,0.686326289
OJECIR,O=C1NC(CO)C(=O)N2CC(O)CC12,1.5397,148.095,215.7903236,0.686291199
VILZUM,CC(=O)OCCn1c(=O)c2cc3c(=O)n(CCOC(C)=O)c(=O)c3cc2c1=O,1.5147,291.998,425.4726078,0.686290949
CXMPYO,Cc1cccc(C(=O)O)[n+]1[O-],1.4786,117.952,171.8805154,0.686244161
CAGNON,NC(=O)C1C(C(N)=O)C2C3C=CC(C4C(=O)NC(=O)C34)C12,1.5296,215.384,313.8662713,0.686228562
QAJTEC,O=C(Nc1ccccn1)c1ccc(C(=O)Nc2ccccn2)cc1,1.4283,253.774,369.8496455,0.686154504
YOYNOP01,COc1cccc(/C=N/NC(N)=O)c1O,1.4743,161.588,235.500452,0.686147303
IMAMOX,N/C(CNC/C(N)=N/O)=N\O,1.48,124.02,180.7487639,0.686145771
HIFPUH,O=C1CNC(=O)C(CO)N1,1.5318,107.152,156.1660981,0.686141239
WORDIS,COC(=O)c1cnn2c(-c3ccccn3)ccnc12,1.4673,197.298,287.5525603,0.686128476
RUYTAJ,CNC1=CC(=O)c2n[nH]cc2C1=O,1.4929,135.121,196.9425844,0.686093363
BOXGOM01,c1ccc2c(c1)c1ccccc1c1oc(-c3ccncc3)nc21,1.4333,235.361,343.0512074,0.686081247
SAFNUJ,NC1=NC2OC(CO)C(O)C2O1,1.5866,124.982,182.1825115,0.686026331
JIYWEV,O=C1C(O)C(O)C2CC(O)CN12,1.5481,127.353,185.6456704,0.686000378
CBOHAZ05,NNC(=O)NN,1.5203,67.478,98.3647566,0.685997733
SUCCAM10,NC(=O)CCC(N)=O,1.4416,91.709,133.6895628,0.68598474
TODVAM,C#CCNC(=O)CNC(=O)CNC(=O)C[N-][N+]#N,1.4537,197.546,287.9771787,0.685977968
PYRZAL10,[NH3+]C(Cc1cc[nH]n1)C(=O)[O-],1.4838,119.047,173.5465512,0.685965807
ZAFXOX,O=C(N/N=C/c1cccc(O)c1O)c1ccc(/N=C/c2cccc(O)c2O)cc1,1.4674,303.597,442.6118253,0.685921574
PHTGLY,O=C(CN1C(=O)c2ccccc2C1=O)NO,1.513,165.658,241.5151251,0.685911493
VIGJOM,COc1ccc2c(c1OC)C(=O)NC2=O,1.497,157.535,229.6810112,0.685886043
AWURAM,O=c1c2cn[nH]c2ncn1Cc1ccncc1,1.4747,175.384,255.7063992,0.685880371
WAKGIB01,O=C(N/N=C1\C(=O)c2cccc3cccc1c23)c1cccnc1,1.4484,236.761,345.1960516,0.685874009
RUNBOU,Cn1c(=O)n2n(c1=O)C1C=CC2C2OC21,1.5538,151.776,221.296903,0.685847827
GOZFOS,NC(=O)c1ccccc1NC(=O)c1cc2c(cc1N=O)OCO2,1.5167,235.067,342.7730117,0.685780362
SARKUU,Cc1cn(C23COC(C(CO)O2)C3O)c(=O)[nH]c1=O,1.5698,195.931,285.7073896,0.685775052
SAFRIC,O=C1CC(N2C(=O)c3ccccc3C2=O)CO1,1.5032,175.03,255.2467228,0.685728687
RIRZIC01,O=C(O)c1cccc(/N=C/c2ccccn2)c1,1.4137,182.097,265.5576589,0.685715489
DADGOH,COc1cccc(-c2nnc(N)o2)c1,1.4611,148.907,217.1582867,0.685707197
CIRYUX,NC(=O)CCn1ccc(=O)[nH]c1=O,1.5048,138.524,202.0180276,0.68570118
MAQVAB,O=c1ccn(C2OC(CO)C(O)C2OC2OC(CO)C(O)C2O)c(=O)[nH]1,1.598,268.003,390.8455861,0.685700465
NOXGEP,O=C(O)c1cc(NCc2ccncc2)cc(C(=O)O)c1,1.4738,210.207,306.5650435,0.685684831
PEFKAP,COc1cc2ccnc3c2c(c1O)-c1c-3cccc(OC)c1=O,1.4749,237.053,345.7484919,0.685622658
BOVTUB,N#CC1C2C=CC(O2)C1C#N,1.3884,119.764,174.6811655,0.685614844
PECLEQ,C#CC(=O)N1C(C)C(=O)OCC1c1ccccc1,1.4034,197.192,287.6403702,0.685550501
YOPSUR,Nc1nc(=O)cnn1COCCO,1.5212,139.249,203.1268913,0.685527156
EBERAE,COC(=O)C1=NN(C)C(=O)/C1=C\c1cccn1C(=O)OC,1.4842,223.257,325.6815896,0.685506971
NAJPUN,O=C1C(=Cc2ncc[nH]2)C(=O)c2ccccc21,1.4464,176.336,257.2398188,0.68549263
LAHLIR,O=C1NC(=O)N(Cc2ccccc2)C1=O,1.4757,157.403,229.6206742,0.685491411
SOQWEC,O=C(Oc1ccc2ccc(=O)oc2c1)c1ccccn1,1.4783,205.605,299.9854385,0.685383267
ZOGTIY,[NH3+]C(C(=O)O)C1CC1C(=O)[O-],1.4943,121.144,176.7541149,0.685381498
EVOXIW,O=C1C(O)=CC=C/C1=C/Nc1ccc(O)cc1,1.4397,181.086,264.2217872,0.685356048
TAFKAM,C1CNc2nonc2N1,1.546,92.794,135.3981497,0.685341714
XAHHEW01,N#CC1=C(N)OC2=C(C(=O)c3ccccc32)C12C(=O)c1ccccc1C2=O,1.4776,272.706,397.9147082,0.685337823
CERYED,CC#Cc1cn(C2OC(CO)C(O)C2O)c(=O)[nH]c1=O,1.5211,211.05,307.9552035,0.685326949
MEGDOS,NC(=O)c1cccc[n+]1[O-],1.473,106.652,155.6239547,0.685318659
JUJQEN,CC(N1CC(=O)NC1=O)N1CC(=O)NC1=O,1.5582,165.103,240.9268272,0.685282756
DABBER,Cc1nc2cc(N3c4ccccc4Oc4ccccc43)ccc2c(=O)o1,1.4635,265.983,388.1735528,0.685216698
AZASER11,[N-]=[N+]=CC(=O)OCC([NH3+])C(=O)[O-],1.513,130.129,189.9248478,0.685160481
JICLAI,CCn1c(=O)[nH]c2c(=O)[nH]c(N)nc21,1.5547,142.76,208.3634026,0.685149111
GADSUD,Cc1ccc2[n-]c3cc(O)c4ccccc4c3[n+](=O)c2c1,1.4402,218.11,318.3410989,0.68514559
VIJWEQ,OC1c2ccccc2-c2c1nc(-c1ccccc1)c1nonc21,1.4685,233.27,340.4712027,0.685138708
XAZBAD,O=C1c2ccccc2-c2nccc3ccc(NCCO)c1c23,1.4414,228.968,334.2231436,0.685075239
QUYMED,O=C1C(=O)N(CCN2C(=O)C(=O)c3ccccc32)c2ccccc21,1.4707,247.575,361.4090985,0.685027026
BANHAC,N#C/C(=C\c1ccc2c(c1)OCO2)c1nc2ccccc2o1,1.457,226.454,330.6031693,0.68497226
NERHUQ,CC(=O)Oc1cc(C#N)ccc1-n1ccc2cccnc21,1.4561,216.449,315.9999734,0.684965248
WOCKEH,CC(=O)c1cnc2ncccn12,1.4396,127.253,185.7838491,0.684951898
YIKYID,COc1ccc(-n2cc(C(=O)NN)c(C(=O)NN)n2)cc1,1.4909,221.328,323.1344914,0.684940809
DAFNON,O=C1OCC(CO)(CO)N2CC12,1.5099,130.37,190.342448,0.684923417
XUBZID,CNC(=O)C1([N-][N+]#N)OC(CO)C(O)C1O,1.552,170.077,248.3204419,0.68490938
JEMJUG,O=c1ccccn1O,1.4579,86.62,126.469433,0.684908582
ITIJIE,COC(=O)c1cc2c([nH]c3ccccc32)c(=O)c2c1[nH]c1ccccc12,1.4667,265.278,387.326648,0.684894782
HUZFAJ,O=c1[nH]c(=O)n2ccccc2c1-c1ccccn1,1.4654,185.546,270.9149534,0.684886521
RACVAW,O=c1cc(O)nc2[nH]c3ccccc3n12,1.5177,150.662,219.9841762,0.684876533
UHECOZ,O=C(O)CN(CCc1ccccc1)CC(=O)O,1.4256,189.152,276.184371,0.684875829
NAXJED,O=C1Nc2nonc2C(O)N1Cc1ccccc1,1.5221,183.866,268.4663471,0.684875412
NUMQOE,O=Cc1ccccc1NC(=O)/C=C\C(=O)O,1.4544,171.281,250.1097867,0.684823262
DOADAC,Nc1ncnc2c1ncn2C1OC(CCC(=O)O)C(O)C1O,1.5486,226.993,331.4630074,0.684821518
VENBIA,CN1C(=O)c2ccc(N)cc2C1=O,1.4571,137.404,200.6470892,0.684804352
NORMIR,Nc1cc[n+](CC(=O)[O-])cc1,1.4417,119.939,175.1463367,0.684793083
CIZDEX,O=C1C(O)=CC=C/C1=C/Nc1cccc(O)c1,1.4406,180.821,264.0567175,0.684780913
ETIDIU,N#Cc1ccc(Oc2ccc3ccc(Oc4ccc(C#N)c(C#N)c4)cc3c2)cc1C#N,1.3977,335.259,489.6091152,0.684748281
DMGUAN10,CN(C)c1nc2c(ncn2C2OC(CO)C(O)C2O)c(=O)[nH]1,1.5457,228.86,334.2503731,0.684696319
MUXQON,O=c1cccc2c(CO)cccn12,1.436,138.611,202.4444034,0.684686747
FAYFER,N#Cc1ccc(Oc2ccc3c(c2)OCO3)cc1C#N,1.4443,207.855,303.5984414,0.684637902
XINYUO,Nc1cc2nc3ccccc3oc-2cc1=O,1.4728,163.686,239.0986378,0.684596121
CUBHUE02,NC(=O)NC(CCC(=O)O)C(=O)O,1.534,140.845,205.744412,0.684562942
ADIVUF,COc1cc2nc3nc(C#N)c(C#N)nc3nc2cc1OC,1.4678,226.199,330.4352721,0.684548591
QIZGOY,NNC(=O)c1nccnc1N,1.5018,115.852,169.2501254,0.684501708
DPTPAM,O=C(Nc1ccccc1)c1ccc(C(=O)Nc2ccccc2)cc1,1.3913,258.268,377.3095865,0.684498908
CUZPAP,O=C1c2ccccc2C(=O)N1Cn1cnc2ccccc21,1.4542,216.584,316.4128464,0.684498125
TANFIA,CC(=O)Oc1cn(-c2ncccn2)c2ccccc12,1.4429,199.37,291.269777,0.68448571
QIXYOL,O=c1ccn(C2OCC(O)C2O)c(=O)[nH]1,1.574,154.579,225.8362947,0.684473681
LURXIF02,COc1ccc2c(cnc3c4cc5c(cc4ccc23)OCO5)c1OC,1.4782,256.124,374.2024348,0.684453056
GLLASP,NC(=O)CC(NC(=O)C[NH3+])C(=O)[O-],1.5023,143.031,208.9981173,0.684365016
UZUBAU,Cn1cc(-c2cc(C#N)on2)c(=O)n(C)c1=O,1.489,177.111,258.8033838,0.684345766
LEPCAM,COC(=O)c1ccc(-c2ccc(C(=O)OC)cn2)nc1,1.4481,213.516,312.0057739,0.684333489
EFUDIV,O=C(O)c1cc(NC(=O)c2cccc(-c3ccncc3)c2)cc(C(=O)O)c1,1.464,281.063,410.7152357,0.684325722
GINGOA,N#Cc1ccc(/C(O)=C2/C(=O)OC(=O)c3ccccc32)cc1,1.4569,227.018,331.7474595,0.684309686
MOQLUA,COC(=O)c1ccc2oc3cc(=O)c(N)c(C(N)=O)c-3nc2c1,1.5208,233.93,341.848913,0.684308158
EZELON,CC(=O)c1ccc(NC(=O)c2cnc3ccccc3c2)cc1,1.4087,234.008,341.9814291,0.684271074
XAYWEB,O=C(O)c1ccc2cc(NC(=O)c3cccnc3)ccc2c1,1.4393,230.59,336.9943765,0.684254742
PUMHOW,COc1ncc(C#Cc2cnc(OC)nc2)cn1,1.434,191.818,280.3338017,0.684248559
DUHYEL,Cc1n[nH]c(=O)n1/N=C/c1cccc(O)c1O,1.5032,176.934,258.5853027,0.684238424
HERMOH02,Cc1cnc(C(=O)O)c(C(=O)O)n1,1.5378,134.497,196.5688619,0.684223324
AYECAJ,O=C(O)/C=N/NC(=O)c1ccccc1O,1.4935,158.277,231.3258682,0.684216604
PUCHON,O=C1CCC(=O)N1/C=C/c1cc2ccccc2oc1=O,1.4652,208.641,304.9519945,0.684176539
BUVKEJ01,O=C(O)CCC1NC(=O)C(CCC(=O)O)NC1=O,1.5224,192.595,281.5135707,0.684141086
IROTAK,O=c1on[n+]2c3ccccc3[n-]c(Nc3ccccc3)c1-2,1.4814,213.255,311.7188279,0.684126145
SAPDES01,O=C1NC(c2ccccc2)=C2C(=O)NC(c3ccccc3)=C12,1.4303,228.818,334.4767187,0.684107405
IMEHIS,O=C(O)c1ccc(N2C(=O)C=CC2=O)cc1,1.4852,166.005,242.6693276,0.684079037
EXAXUZ,O=C1C=Cc2ccccc2/C1=C/Nc1ccc2ccc3cccc4ccc1c2c34,1.4094,299.123,437.2783894,0.684056215
QAMSOO,O=C(O)Cn1cnnn1,1.551,93.766,137.0807906,0.684019983
NAPFOX,O=[n+]1o[n-]c2c1-c1cccc3cccc-2c13,1.4941,159.679,233.4497593,0.683997279
SACQUI,O=C1Nc2ccccc2C(O)C1O,1.4837,137.073,200.4071702,0.683972533
NIDNET,CN1C(=O)NC(=O)/C1=C/c1cccnc1,1.454,158.619,231.9237777,0.683927287
LOLXUH,N#CC(C#N)=Cc1ccc2ccc3cccnc3c2c1O,1.3986,220.119,321.8550104,0.683907328
POKMIO,COc1cc(/C=N/n2cnnc2)cc(OC)c1O,1.4674,192.009,280.7549512,0.683902454
QOMCAZ,CC(=O)Nc1c(O)cccc1C(N)=O,1.46,150.957,220.7337106,0.683887384
XUBTOE,O=C1c2cccc3cccc(c23)C(=O)N1CCO,1.46,187.504,274.1967856,0.683830044
HOYVEX,COC(=O)c1ccc(C(=O)OC)c(N/N=C(/C(C)=O)C(=O)Nc2cc3[nH]c(=O)c(=O)[nH]c3cc2OC)c1,1.5122,383.818,561.2941407,0.683809027
BODFEF,N/C(C/C(N)=N/O)=N\O,1.4928,100.457,146.9096216,0.683801366
ZIFREL,O=C1c2cc3ccccc3cc2C(=O)N1c1ccccc1,1.4237,217.766,318.5186147,0.683683747
CISNEX,N#CC(N)=O,1.3901,57.183,83.64128702,0.683669537
DOSMIH,O=C1/C(=C2/C=CC=C[N-]2)[N+](=O)c2ccccc21,1.4404,176.591,258.3113536,0.68363623
BETPEY,COC(=O)c1c(C(=O)OC)c2ccccn2c1C(=O)c1ccccc1,1.4448,264.855,387.4446252,0.683594462
METCYT01,Cn1ccc(N)nc1=O,1.4507,97.856,143.1535321,0.683573773
EJUHOG,O=C1CNC(c2ccccc2)N1O,1.4422,140.159,205.040953,0.683565883
KOZTOK,O=c1c(-c2ccccc2)noc2ccccc12,1.4178,178.582,261.2631988,0.683532931
IVIQOV,COc1cc(C=C(C#N)C#N)c(OC)cc1C=C(C#N)C#N,1.3616,241.808,353.7804581,0.683497334
MEQJEY,O=C1CCC(=O)c2ccncc2N1,1.4646,136.439,199.6196053,0.68349499
NUJTOE,N#C/C(N)=C(C#N)/N=C/c1c(O)ccc2ccccc12,1.3984,212.718,311.2264849,0.683482963
RUWCAN,CC(=O)/C(C#N)=C/c1ccc(C#N)o1,1.3829,152.689,223.4021876,0.683471373
BARBAC,O=C1CC(=O)NC(=O)N1,1.5884,91.476,133.8413825,0.683465743
YUXCUP,O=C([O-])C[NH2+]CC1(O)OCC(O)C(O)C1O,1.5667,171.739,251.2945074,0.683417245
SISPEQ,COc1ccc2cc3c(=O)oc4ccccc4c3nc2c1,1.4598,215.403,315.1862632,0.683414936
VIGJUS,COc1ccc2c(c1OC)C(=O)N(O)C2=O,1.5214,166.378,243.4557835,0.683401304
PACXEW,Nc1ncnc2c1nc1n2C2OC(CO)C(O)C2C1,1.5518,192.409,281.548469,0.683395653
OQORUI,Cn1c(N)c(Cc2c(N)n(C)c(=O)n(C)c2=O)c(=O)n(C)c1=O,1.5109,241.947,354.0564865,0.683357061
XUGKIT,OCC1OC(n2cc3cncnc3n2)CC1O,1.5126,177.119,259.1912041,0.683352665
UBACOS,COC(=O)c1cnc(-c2ccc(O)cc2)c(=O)[nH]1,1.4849,188.028,275.1794549,0.68329229
MEYRID,Cc1cc(=O)[nH]c(=O)n1C1OC(CO)C(O)C1O,1.5495,188.988,276.5900357,0.683278411
FACQIJ,CC(=O)n1cc(NC(=O)c2ccccc2)c(O)n1,1.455,191.108,279.7112828,0.683233076
SARBOX,OCC(O)C(O)C(O)/C=N/O,1.508,124.185,181.7671204,0.683209371
FUGVOV,COC(=O)/C(Cc1c(C(=O)OC)[nH]c2ccccc12)=N/O,1.4652,224.621,328.7768939,0.683201904
PYINDO,O=C1C(=C2C=CC=CN2)C(=O)c2ccccc21,1.4221,177.951,260.473218,0.683183482
DEBPOP,CC(=O)c1c(O)ccc2c(=O)c3c(O)cc4c(c3n(C)c2c1=O)C=CC(C)(C)O4,1.4799,301.367,441.1224587,0.683182173
MPYDZO,Cn1nc(O)ccc1=O,1.4699,97.28,142.395323,0.683168505
DOJQOL,COc1ccc2c(c1)C(=O)c1nc3ccc(OC)cc3c(=O)n1-2,1.4878,234.888,343.8615144,0.683088947
FOHHUF,O=C1C(=O)N(C(=O)C(=O)N2C(=O)C(=O)c3ccccc32)c2ccccc21,1.5157,260.463,381.31048,0.683073279
DABWAH,O=C([O-])c1cc(-[n+]2ccc(O)cc2)ccc1C(=O)O,1.4943,196.64,287.8774202,0.683068508
APOZEM,COc1ccc(-c2cn(-c3cc4ccc(OC)cc4oc3=O)nn2)cc1,1.465,270.301,395.7173028,0.683065911
SEGZOV,COC(=O)c1ccc(C(=O)Nc2cccnc2)cc1,1.4249,203.854,298.4450882,0.683053627
CBPYAZ,O=C(n1cccn1)n1cccn1,1.4678,125.23,183.3404683,0.683046144
FIWYOZ,Cn1ncnc2c(=O)n(C)c(=O)nc1-2,1.5273,143.373,209.9099022,0.683021613
AYAKAN,N#Cc1cc2ccccc2[nH]c1=O,1.405,137.269,200.9834378,0.682986626
DOGPAQ,O=C1NCC2C(=O)NCC12,1.505,105.548,154.5390524,0.68298594
FORHYZ,O=CN(C=O)N(C=O)C=O,1.504,108.603,159.0125048,0.682984021
PISXHZ,O=C1ON=C(c2ccccc2)/C1=N/Nc1c(-c2ccccc2)[nH]oc1=O,1.4792,266.881,390.7729656,0.682956662
NAXDAT,COc1ccc(-c2ncc3c(=O)c4ccccc4oc3n2)cc1,1.4558,236.892,346.8630348,0.68295545
FEXBUF,CC1=CC(=[N+]([O-])[O-])C=C[N+]1=O,1.4967,116.721,170.9061539,0.682953758
CANCAW,Nc1nnc(-c2cnn(-c3ccccc3)n2)o1,1.4908,173.505,254.0534862,0.682946739
MUDHEB,C=CCn1nc2c3c(nnc(C)c3c1=O)-c1ccccc1-2,1.4271,219.411,321.2763682,0.682935385
SOVPOK,COC(=O)C1OC(=O)c2cc(OC)c(OC)nc21,1.5156,189.351,277.2691824,0.682913977
KAZZIW,N#C/C(=N\O)c1cccnc1,1.3983,119.253,174.6263609,0.682903769
VAWKIP,COC(=O)C1=Nc2c(ccc(O)c2C=O)OC1c1c[nH]c2ccccc12,1.4829,267.723,392.042555,0.682892703
YEYFUE,O=C(O)c1ccccc1Oc1cccc2cccnc12,1.4366,209.231,306.4051977,0.682857215
BELCUQ,[NH3+]C(CCC(=O)O)C(=O)NC(CCC(=O)O)C(=O)[O-],1.5068,207.771,304.2770134,0.682835018