name,smiles,Density,Vint,Veff,pc
GOFSIE,Oc1cccc(/C=N/OCCCO/N=C/c2cccc(O)c2O)c1O,1.3793,267.437,416.7048772,0.641789944
PAZQEO,CCOC(=O)C1=CC(=O)OC12C(=O)N(C)c1ccccc12,1.3903,220.064,342.8929052,0.641786391
TOGRAL,O=C1C=CC2(C=C1)N=C(c1ccccc1)N(c1ccccc1)C2=O,1.3245,252.743,393.8117322,0.641786365
JURLAM,C=CCn1c(-c2ccccn2)n[nH]c1=O,1.3367,161.122,251.0534273,0.64178371
ROVKEU,CCOc1ccccc1-c1cc(-c2ccccc2)nc2nncn12,1.3334,252.675,393.7074261,0.641783678
EHASEM,COc1cccc2c1[nH]c1c(C3CCC3c3ncc(OC)c4c3[nH]c3ccccc34)ncc(OC)c12,1.352,376.951,587.3518749,0.641780534
MIJCAL,COc1cc(C(O)CC(=O)N2C(=O)OCC2c2ccccc2)cc2c1OCO2,1.4025,292.643,455.9885076,0.641777139
GIVDAS,O=C1CCCc2c1c(-c1ccccc1)c1c3ccccc3ccn21,1.312,252.731,393.7989041,0.641776799
YOVYEQ,CCOC(=O)C1=C2C(=O)Oc3ccccc3N2C(=O)C1(O)C1CCCCC1=O,1.4129,290.486,452.6320914,0.641770669
AXUMEO,CCOC(=O)C12C3=CC1c1ccccc1N2C(=O)CC3,1.3512,212.248,330.7253434,0.641765151
KUFFUO,COc1ccccc1C(=O)N/N=C/c1ccccc1C,1.2957,220.53,343.6304914,0.641764935
PITFEE,O=C(CCCCCCC(=O)Nc1cccnc1)Nc1cccnc1,1.3085,265.649,413.9434487,0.641751913
TOMPAN,COc1ccc(C2Nc3[nH+]cnn3C(O)(C(=O)[O-])C2c2ccccc2)cc1,1.3932,280.064,436.4054953,0.641751772
VOTYAE,O=C1OC2c3ccccc3OC(=O)N2C1Cc1ccccc1,1.3862,226.856,353.4967904,0.641748401
GONYEN,C/C(=N\O)c1cc(C)cc(/C(C)=N/O)c1O,1.3299,177.975,277.3291184,0.641746532
NOFNUU,CCN1C(=O)C(C(=O)c2ccccc2O)Cc2ccccc21,1.3304,236.398,368.3686655,0.641742966
IWITAJ,COc1cc2c(cc1OC)C1C(C)Oc3c(cn[nH]c3=O)N1CC2,1.3925,251.885,392.5068766,0.64173398
HUPVUM,COc1cccc(C(=O)/C=C/c2c[nH]c3ccccc23)c1,1.2994,227.261,354.1398559,0.641726697
WUZTIX,COc1cc(C(=O)NN2C(=O)c3ccccc3C2=O)cc(OC)c1OC,1.3931,272.399,424.4785361,0.641726205
SANVIO,O=C/C=C/C=C1/C(=O)N(Cc2ccccc2)c2ccccc21,1.2923,238.404,371.5054778,0.641724051
SIHDIX,COc1cc(OC)cc(/C(N)=N/O)c1,1.3496,154.828,241.2703068,0.641720078
VUNYOS10,O=C(O)CCNC(=O)c1ccccc1,1.331,154.581,240.8854297,0.641720008
VAFQEA,COc1ccc(COCc2cc(C#N)c3ccccc3c2C#N)cc1,1.2935,270.319,421.2431602,0.641717244
ZUNVOW,CC1(C)OC(=O)c2c1n1c3ccccc3cc1c1ccccc21,1.3431,238.905,372.2907667,0.641716157
KOBZOQ,CCCc1nc2ccccc2c(=O)n1NC(=O)c1c(O)c2ccccc2n(C)c1=O,1.3766,312.851,487.5264599,0.641710811
LILCUH,Cc1[nH]c2ccccc2c1C(=O)CCc1ccccc1,1.275,219.92,342.7100879,0.641708569
LIVQUD,CC1=NN2C(C1)c1ccccc1OC2c1ccc(C(=O)O)cc1,1.3638,240.75,375.1705404,0.641708168
IWIHED,Oc1n[nH]nc1Cc1ccccc1,1.3412,139.101,216.7676837,0.641705431
DUBREX,O=C1CCC(=O)N2CCCCN12,1.3742,130.344,203.1218533,0.641703479
CACYOV,CC[C@@H]1COC(=C(C(=O)Nc2ccccc2)C(=O)Nc2ccccc2)N1,1.3391,279.44,435.4667007,0.641702338
KOBCIQ,O=C1c2ccccc2C(=O)N1CCOc1cc(-c2ccccc2)nn1-c1ccccc1,1.3446,324.247,505.2969437,0.641695945
KIFHUC,CC(C)=C1C(=O)OC(=O)/C1=C(\C)c1cn(C)c2ccccc12,1.3166,238.858,372.2297377,0.641695103
AXURIW,Cc1ccc(N2C(=O)c3ccccc3C2C(=O)c2ccc(C)cc2O)cc1,1.3218,287.912,448.6766993,0.641691446
PUBLIJ,O=C1C2CCCN2C2(C(=O)Nc3ccccc32)N1c1cccc(NCc2ccccc2)n1,1.3573,333.805,520.1963469,0.641690396
VORJER,COc1ccc(C(=O)C2=C(Nc3c(N)n(C)c(=O)n(C)c3=O)C(=O)OC2)cc1,1.4087,292.076,455.1680603,0.641688259
OQOMEN,c1ccc(-c2nccc3oc4ccccc4c23)cc1,1.3162,198.416,309.2133389,0.641679951
LEBBOJ,COC(=O)C1=NN(c2ccccc2C(=O)OC)C(C(=O)c2ccccc2)C1,1.3576,287.367,447.8355053,0.641679806
UCERIE,CN1C2Oc3ccccc3C1Oc1ccccc12,1.3595,187.401,292.0489447,0.641676689
KUWLAQ,COC(=O)N1C(OC)=CC2C(=O)c3c(cc(OC)c(OC)c3OC)C2N1C(=O)OC,1.4209,316.567,493.3445562,0.641675267
YOGTUJ,OC1COC(C(O)c2cnn(-c3ccccc3)n2)C1O,1.3998,210.937,328.7345683,0.64166358
WOBLAA,Cc1cn(C2CC(O)C(CO)O2)c(N)nc1=O,1.4157,181.472,282.8148962,0.641663513
CUSMEK,CCOC(=O)/C(=N\N=C(/Nc1ccc(C)cc1)C(=O)/C=C/c1cccc2ccccc12)C(C)=O,1.3079,370.835,577.9336272,0.641656728
CEWGUG,COc1ccccc1N/N=C(/C(C)=O)C(=O)Nc1ccccc1OC,1.343,270.658,421.8116349,0.64165608
YOVSOU,CNC1=C(c2ccccc2)C(=O)N(C)C1=O,1.3242,173.879,270.985388,0.641654523
DIZVAL,CCc1c(CC)n(-c2cccc3cccnc23)c(=O)c2ccccc12,1.3094,267.04,416.1741634,0.641654441
GINFOY,O=C1/C=C\C(=O)OC2CCN3CC=C(CO1)C23,1.3989,179.062,279.0630143,0.64165436
WASKAD,CCOc1c(C(C(=O)OC)C(=O)OC)c2ccccc2n1C(=O)OC,1.378,269.951,420.7128317,0.641651454
EKIZOP,COc1ccc2c(c1)c(-c1ccccc1)c1n2C(=O)c2c-1c1ccccc1n2Cc1ccccc1,1.3258,365.006,568.8577411,0.641647241
KENPAW,O=C(N/N=C/c1c(O)ccc2ccccc12)c1cc2c3ccccc3n(Cc3ccccc3)c2cn1,1.34,373.865,582.6652258,0.641646324
UPETUG,O=C(Nc1cccc2cccnc12)c1cccc(-c2ccccc2)c1,1.3082,263.996,411.4386734,0.64164119
JOCLEU,O=Cc1ccc2n1CC1(CC(O)C(CO)O1)OC2,1.4134,190.797,297.3606866,0.641634919
HOMJUR,N#Cc1c(N)oc(-c2ccccc2)c1Cc1ccc2c(c1)OCCO2,1.3525,261.64,407.7722609,0.641632659
IZAMEB,CCOC(=O)C1=C(N)Oc2c(c(=O)oc3ccccc23)C1c1ccc(OC)cc1,1.3838,302.694,471.7568483,0.641631385
HICHEJ,O=C1C(c2ccccc2)N2C(=O)C(c3ccccc3)=C3Nc4ccccc4C32N1Cc1ccccc1,1.3336,374.849,584.2221748,0.64162063
DUZCAD,COC(=O)N1C(c2ccccc2)=NN=C(c2ccccc2)N1C(=O)OC,1.3644,274.97,428.5588885,0.64161544
NIVMUC,COc1ccc(-c2nnn3c2C(c2ccco2)c2cccn2-c2ccccc2-3)cc1,1.3556,309.783,482.8222378,0.641608807
JOSKEK,O=C1O/C(=C\c2ccccc2)C=NN1CCO,1.3493,183.261,285.6295902,0.641603693
IBAVEN,N#Cc1cc2c([nH]c1=O)CCCC2,1.3128,141.279,220.1981316,0.64159945
LUHGAX,CN(/N=C/c1ccccc1)C(=O)c1ccc2c(c1)OCO2,1.3472,223.1,347.7256491,0.641597767
GIPBEM,O=C(O)c1cn(C2OC(CO)C(O)C2O)nc1OCc1ccccc1,1.426,261.585,407.7103733,0.641595155
NENJUL,CCNc1ccc(NCC)c2c1C(=O)c1ccccc1C2=O,1.322,237.05,369.4732347,0.6415891
EMOSIL,N#CC(C#N)=C(c1ccccc1)c1cc2ccccc2o1,1.2875,223.494,348.3446268,0.641588768
UCIRII,COc1cc(N(C)C)ccc1C1=CC(=O)C=C(c2ccc(N(C)C)cc2OC)C1=O,1.3138,329.397,513.4098651,0.641586815
COSWUE,CN1C(=O)C2(Nc3ccccc3-n3cccc32)c2ccccc21,1.3453,238.475,371.6958172,0.64158645
COPVEK,O=C1C=COC2(C1)C(=O)N(Cc1ccccc1)c1ccccc12,1.3394,242.693,378.2721249,0.641583093
ZELVOB,CC1=NOC2(C1)C(=O)OC(c1ccccc1)N2C(=O)c1ccccc1,1.366,262.147,408.5987835,0.641575576
QAPKOH04,O=C(/C=C1\Nc2ccccc2N=C1c1ccccc1)c1ccccc1,1.3045,264.717,412.6056516,0.641573859
JOKWUD,C#CCN1C(=O)C2(c3ccccc31)C(C(=O)c1cc3ccccc3oc1=O)CN(C)C21C(=O)Nc2ccccc21,1.3701,411.477,641.3614757,0.641568001
QIRDAY,COC(=O)C1C(C#N)=C(C)NC(C)=C1C(C)=O,1.3128,189.981,296.120654,0.641566191
MURDAE,O=C(NCc1ccccc1)c1cc2ccccc2oc1=O,1.3425,221.48,345.2186932,0.641564331
BALLIM,O=C1CCC(n2ncc(-c3ccccc3)n2)N1,1.3477,180.318,281.060106,0.641563837
USEQAN,CN1/C(=C\c2ccccc2)C(=O)c2ccccc21,1.2835,195.146,304.1734205,0.641561645
ZOCJOS,Cc1cc(C)n(-c2cc(C)c3c(O)n[nH]c3n2)n1,1.363,190.026,296.1935465,0.641560231
SOGQIP,O=C1CCC(=O)N1c1ccc(-n2c3ccccc3c3ccccc32)cc1,1.3417,270.071,420.9623818,0.641556138
RUGSIW,C/C(=N\NC(=O)c1ccncc1)c1ccccc1,1.2932,196.979,307.036185,0.64154979
VELKEC,N#C/C(=N\c1ccccc1N(C(=O)c1ccccc1)C(=O)c1ccccc1)c1ccccc1,1.299,351.957,548.6087107,0.64154468
IZETOX,O=C1OCCN1c1ccccc1COc1ccn(-c2ccccc2)n1,1.356,263.293,410.4069926,0.641541213
PHXIAZ10,Oc1cc2c(cc1O)-c1c(cnn1-c1ccccc1)CC2,1.3582,218.14,340.0250621,0.641540946
YURVOY,COc1ccc(N2C(=O)c3ccccc3N3COc4ccccc4C32)cc1,1.358,280.952,437.9334106,0.641540456
LUQMAN,CCCc1ccc(-c2cc(=O)c3n[nH]c(C(=O)OCC)c3o2)cc1,1.3517,257.036,400.6554167,0.641538812
ASUZIY01,OCc1cn(Cc2ccccc2)nn1,1.3179,152.852,238.2602671,0.641533739
LABHUR,COC(=O)C1C23C=CC=CC12C1C=CC3n2c(=O)n(C)c(=O)n21,1.4098,236.601,368.8070993,0.641530492
TABDUY,CCOC(=O)Cn1nnnc1-c1nccnc1-c1nnnn1CC(=O)OCC,1.4252,290.124,452.2438785,0.641521121
SATXUJ,Oc1ccccc1-c1cc(-c2ccccc2)[nH]n1,1.3156,191.176,298.0079777,0.641513027
SAKFOA,N#C/C(N)=C1\c2ccccc2C(=O)N1Cc1ccccc1,1.3088,223.922,349.0531742,0.641512573
UWISEZ,O=C(Oc1ccccc1)/C(=C/c1ccccn1)c1ccccc1,1.2897,248.717,387.7054578,0.641510185
BOTQEJ,CN1NC2c3ccccc3C3=CCCC32C1=O,1.3349,180.44,281.2789603,0.641498389
SECYOQ,C/C(=N\NC(=O)CC#N)c1ccccn1,1.3058,164.86,256.994269,0.641492904
XEBVEH01,O=C(/C=C/c1ccccc1)N/N=C/c1ccccc1O,1.3051,217.202,338.5907894,0.641488212
MCYHNQ,CC1=C(C)CC2(C#N)C(=O)C=CC(=O)C2(C#N)C1,1.2984,196.978,307.0650422,0.641486242
FOFNOF,N#CCC1(O)C(=O)Nc2ccccc21,1.3515,148.227,231.0692371,0.641483055
PAMTUT,C/C(=N\NC(=O)c1ccccc1)c1ccccc1O,1.3115,206.393,321.7442922,0.641481465
GOYFOP,COc1cccc(NC2=C(N=O)C(=O)CC(C)(C)C2)c1,1.326,220.223,343.3055592,0.641478106
TODPOU,Cc1ccccc1NC=C1C(=O)OC2(CCCC2)OC1=O,1.3616,224.622,350.1648265,0.641475051
SAMPUT,CNc1nc2[nH]c(-c3cccc(CNC(=O)COC)n3)cc2c2c1ncn2C,1.3682,295.211,460.2098541,0.641470402
WACYIK,Oc1cccc(OCc2ccncc2)c1,1.3163,162.722,253.6745058,0.641459809
CIMHIR,Cc1cn(CC2CC(O)C2CO)c(=O)[nH]c1=O,1.377,185.742,289.5630633,0.641456123
BICRUA,Cc1cn(CCOCCOCCn2cc(C)c(=O)[nH]c2=O)c(=O)[nH]c1=O,1.3908,280.434,437.183796,0.641455613
YURNAA,CCOC(=O)/C(N)=C/c1ccncn1,1.333,154.294,240.5380055,0.641453727
FADMOP,COC(=O)N1c2ccccc2N(C(=O)OC)C1C#Cc1ccccc1,1.3512,264.966,413.0742586,0.64144883
SAQZIT,O=c1c2ccccc2c(O)nn1-c1ccccc1,1.3509,187.719,292.6538325,0.641437013
BOVFOH,CC(=O)OC1CC(=O)N1C12CC1COC2=O,1.4182,169.036,263.5318133,0.641425405
DOKBEN,c1ccc(Oc2cc3c(c(-c4ccccc4)n2)COC3)cc1,1.3189,233.487,364.0128356,0.641425184
BOCXEX,COc1ccc(-c2cc(-c3ccc(OC)cc3)nc(-c3ccc(OC)cc3)n2)cc1,1.3161,322.242,502.3854939,0.641423775
RADYOO,O=C1CCC(=O)N1c1ccc(O)cc1,1.3731,148.208,231.0620629,0.641420743
OMEVOU,O=C1Oc2ccccc2C12Cc1ccccc1N1CCc3ccccc3C12,1.342,280.287,436.9798105,0.64141865
XECLIB,Cn1ncc2c1C(CO)CC2Cn1ccc(=O)[nH]c1=O,1.3895,211.665,329.9953885,0.641418054
VUTMEC,Cc1noc(-c2ccccc2)c1CCC#N,1.2636,178.783,278.7313198,0.641416975
FADSAF,N#[N+][N-]C1CC(n2cnc3c(N)ncnc32)C2CC12CO,1.3999,217.703,339.4141812,0.641408085
CEHBAS,CN(CC(O)C1=C(c2ccccc2)C(=O)c2ccccc2C1=O)c1ccccc1,1.3064,312.388,487.034943,0.641407777
ZEXXOP01,COc1nc(OC)n(C)c(=O)n1,1.411,129.131,201.3249666,0.641405794
NUQXAA04,COc1cccc(/C=N/c2cccc(C(C)=O)c2)c1O,1.3129,218.315,340.3732836,0.641398754
LIYPUE,COc1ccc2c(c1)c(CCNC(C)=O)cn2N=O,1.3472,206.435,321.8538402,0.641393621
ATIPUO,Cc1cccc(NC(=O)c2cccc(C(=O)Nc3cccc(C)c3)c2)c1,1.2879,284.615,443.7453256,0.641392672
DIXKAW,CC1(CN)OC2OC(CO)C(O)C(O)C2O1,1.4494,172.768,269.364108,0.641392059
MAPBAH,COc1cccc(OCC#N)c1OCC#N,1.2975,179.008,279.0948882,0.641387598
LEKQEX,CCC12C(C(=O)OC)=C(N)OC1N(C(=O)OC)c1ccccc12,1.3915,243.498,379.6426029,0.641387447
NEDFOU,COc1cc(C=O)ccc1Oc1nc(C#N)c(C#N)nc1Oc1ccc(C=O)cc1OC,1.3814,331.607,517.018727,0.641382957
OFEGAI,O=C1C=C(Nc2ccccc2C(=O)O)CCC1,1.3441,183.118,285.5050186,0.641382771
RIGJOG,CN(N=O)C1C(N(C)N=O)C(N(C)N=O)C1N(C)N=O,1.4076,218.016,339.9174242,0.641379301
DOXZOF,O/N=C1/Cc2ccccc21,1.295,109.429,170.6157681,0.641376827
VEXZAC,Cc1cc(-c2ccccc2)n(C)c(=O)c1C#N,1.296,184.163,287.1389626,0.641372381
YOKQOE,CC(=O)N1C(=O)C(C2(O)C(=O)N(C(C)=O)c3ccccc32)c2ccccc21,1.3817,280.664,437.6017177,0.641368598
YEYPOH,CC(=O)OC1CC=C2c3cc4c(cc3C(=O)NC2C1OC(C)=O)OCO4,1.4273,267.962,417.7974451,0.641368211
WUNWEI,O=C1NC(C2NC(=O)c3ccccc32)c2ccccc21,1.3647,206.104,321.3509569,0.641367314
KEFRIY,[NH3+]CCNCCNC(=O)[O-],1.3364,117.233,182.7862538,0.64136661
HIGYAA,O=c1oc2ccccc2c2c1c1cccc(Cc3ccccc3)c1n2Cc1ccccc1,1.3151,336.221,524.2263664,0.641366062
ASAPAO,COC(=O)C1C(=O)n2ccc3c(C)ccc(c32)-c2ccccc21,1.3456,241.493,376.5291945,0.641365938
BOWYES,CCOC(=O)c1c(C)[nH]c2ccc(OC)cc2c1=O,1.3577,204.815,319.3509902,0.641347628
UQOPOH,O=c1c(-c2ccccc2)c(O)c2cccc3c4ccccc4n1c23,1.3445,246.428,384.2348385,0.641347362
BUHFUH,Cc1noc(C)c1/N=C/c1c(O)ccc2ccccc12,1.3262,213.699,333.2037697,0.641346286
UYAJUB,Cc1c(/N=C/c2ccc3c(c2)OCO3)c(=O)n(-c2ccccc2)n1C,1.3528,263.832,411.3777957,0.641337483
GADWIS,O=C1C=CC(=O)N1c1ccc(Cc2ccc(N3C(=O)C=CC3=O)cc2)cc1,1.3462,283.296,441.7271949,0.641337014
MHTZTZ,CC1=Nn2c(C)nnc2NC(=O)C1,1.3915,137.06,213.7128471,0.641327846
PIQGUT,O=Cc1c2n(c3ccccc13)CC1CC21,1.3176,159.299,248.3893417,0.64132784
BOSXUC,O=C1CC/[N+](=C/c2c3ccccc3cc3ccccc23)[N-]1,1.3149,222.01,346.1769596,0.6413194
SIKMIL,COC1(CNc2ccccc2C(=O)O)OC(CO)C(O)C1O,1.4159,235.511,367.2298058,0.64131777
AVAGAF,N#Cc1c(N2CCCCC2)cc(-c2ccc3ccc4ccccc4c3c2)oc1=O,1.3256,305.41,476.222997,0.641317202
QECLOB,Oc1ccccc1/C=N/c1ccc2ccccc2c1,1.2903,203.948,318.0142487,0.641317176
BOTSIM,CC(O)C1OC(n2ccc(N)nc2=O)C(O)C1O,1.4333,191.031,297.8735812,0.641315686
KASSEC,CCC(=O)c1[nH]c(-c2ccccc2)cc1C(=O)OC,1.3119,208.71,325.4431618,0.641310141
FEHKEI,CC1=CC(=O)CCC12C(O)CCCC2C#N,1.2885,181.109,282.4062998,0.641306515
GIHFIM,O=C(CC1Nc2ccccc2N=C1c1ccccc1)c1ccccc1,1.2927,268.681,418.9612912,0.641302683
PAEXPY,CC1=CC(=O)/C(=C(/C)Nc2ccccc2)C(=O)O1,1.3333,194.161,302.7634408,0.641296054
GELCOR,CCOc1nc(/C(C#N)=C2\CCCO2)nc2ccccc12,1.3286,225.326,351.3637952,0.641289749
ASAXEX,C/C=C/C(=O)OC1(C2(O)C(=O)N(C(C)=O)c3ccccc32)C(=O)N(C(C)=O)c2ccccc21,1.3918,342.881,534.6743647,0.641289395
WADCEJ,COC1=C(OC)c2cc3[nH]c(cc4nc(cc5[nH]c(cc1n2)c(OC)c5OC)C(OC)=C4OC)c(OC)c3OC,1.3775,423.798,660.8533571,0.641289017
WICLAV,O=[N+]1C(c2ccccc2)=C([O-])C2(c3ccccc3)CC(c3ccccc3)ON12,1.3439,293.297,457.3560321,0.641288142
LILKEY,C/C(=N\Nc1ccccc1)C(=O)OCC(=O)c1ccccc1,1.3119,240.369,374.8230681,0.641286571
TEJPAZ,Cc1ccc(/N=C/c2ccccc2O)cc1/N=C/c1ccccc1O,1.3121,267.944,417.8227394,0.641286303
FIXNUX,Cc1ccc(C(=O)N/N=C(\C(=O)O)c2ccccc2)cc1,1.3265,226.471,353.1518994,0.641284955
SUJFUA,COc1cc(C(=O)NCc2ccccc2)cc(OC)c1OC,1.3246,242.094,377.5168476,0.641279989
AROQOP,CC(=O)c1cccc(CN2C(=O)c3ccccc3C2O)c1O,1.3592,232.771,362.9814886,0.641275126
KUKCUQ,Oc1ccccc1/C=N/c1ccc(/C=C/c2ccccc2)c(/N=C/c2ccccc2O)c1,1.2992,342.755,534.4904504,0.64127432
AGLUAM10,CC(=O)NC(CCC(N)=O)C(=O)O,1.3742,145.747,227.2778061,0.641272469
QICXOP,COC(=O)C1C(=O)OC2N(C(=O)OC)c3ccccc3C12C,1.4083,230.696,359.7474613,0.641272072
EVEFAN01,CCN(CC)c1ccc2cc(C=O)c(=O)oc2c1,1.3206,197.645,308.2096654,0.641268014
WUDHEI,CCn1ccc2cncn2c1=O,1.348,128.824,200.8914077,0.641261871
BUQPIO,COc1ccc(/C=N/Nc2nnc(-c3ccccc3)c(-c3ccccc3)n2)cc1,1.3129,309.154,482.1026502,0.641261773
GOCTOJ,Cc1cc(=O)c(O)c(C(CC(N)=O)c2ccc(O)cc2)o1,1.3734,224.152,349.5494354,0.641259797
EDITAO,C/C(=C1/C(=O)n2c(nc3ccccc32)C1=C(C1CC1)C1CC1)c1cc(C)oc1C,1.2987,315.009,491.2416892,0.641250543
PUBSUB,O=C(/C=C/c1ccccc1)c1ccncc1,1.2637,176.183,274.7527076,0.641242088
YAYGUC,Cc1c(C(=O)NN)oc2ccccc12,1.35,149.925,233.8053794,0.641238454
GOMZOX,CC12ON(C(N)=O)C(C)(c3ccccc31)c1ccccc12,1.3497,221,344.6463864,0.641236957
NOKNIL,CN(C)C(Nc1ccncc1)=C1C(=O)OC(C)(C)OC1=O,1.3695,226.358,353.0025829,0.641236101
VEVQIW,CCOC(=O)C12C(=O)CCN1CC(=O)OCC2c1ccccc1,1.3626,247.826,386.4817052,0.641236045
ZEDXEN,CC1(O)C=CC(=O)NC1=O,1.3953,107.638,167.860195,0.641236
GIRXAH,COC(=O)C1=C(C)NC(C)=C(C(=O)OC)C1c1ccc(C=O)cc1,1.3407,261.404,407.6580678,0.641233476
REVYUM,O=C1c2ccccc2C(=O)N1CCN1CCN(CCN2C(=O)c3ccccc3C2=O)CC1,1.3635,337.511,526.3496162,0.641229688
NAFDUX,COc1cc2c3c(nc(-c4ccccc4)c(-c4ccccc4)c3c1)OC(c1ccccc1)=C2c1ccccc1,1.3045,410.738,640.5480041,0.641229069
IQEWAE,CCCCNC1=CC(=O)c2ccccc2C1=O,1.2962,188.213,293.5199266,0.641227334
KUJTOB,COc1ccc(/C=C2\N=C(c3ccccc3)N(c3ccc(OC)cc3)C2=O)cc1,1.3216,309.507,482.683989,0.641220772
WOCROW,COc1c2c(OC)c(OC)c(c1OC)/N=c1/ccccc1=C=C=C=C=c1cccc/c1=N/2,1.3271,340.311,530.7291954,0.641214018
TOQHIS,COc1cccc(/N=C/c2c(O)ccc3ccccc23)c1,1.3087,225.465,351.6232359,0.641211891
YUPXAJ,C=CCn1c(=O)c(C)nc2ccccc21,1.2969,164.284,256.2091877,0.641210417
PITFAA,O=C(CCCCC(=O)Nc1cccnc1)Nc1cccnc1,1.3208,240.354,374.845719,0.641207803
PAVVOX,CC(=O)NC(CO)C(N)=O,1.366,113.86,177.5713159,0.641207165
MEBRUI,O=C1CCCc2c1cnc1cc(-c3ccccc3)nn21,1.3428,208.631,325.3750332,0.641201625
HOHSUV,O=c1c2cc3ccccc3cc2c2ccccc2n1-c1cccc2cccnc12,1.3276,298.455,465.4661589,0.641195916
GUKDEY,COc1ccc(-n2c3ccccc3c(=O)c3ccccc32)cc1,1.3253,241.916,377.2909748,0.64119212
JADTOX,Cc1ccc2c(c1)N=C1CC3(C)Oc4ccc(C)cc4N=C3C=C1O2,1.3416,262.013,408.6353729,0.641190209
HOHSAB,Cc1ccc2c(c1)c(=O)n(-c1cccc3cccnc13)c1ccccc21,1.317,271.747,423.8202525,0.641184555
PODZEN10,c1ccc(-c2cnc(-c3ccccc3-c3ncc(-c4ccccc4)o3)o2)cc1,1.3233,292.978,456.9331427,0.641183518
VAZPOE,COc1cccc(/C=N/c2ccc(-c3ccc(/N=C/c4cccc(OC)c4O)c(C)c3)cc2C)c1O,1.3139,389.145,606.9170174,0.641183208
CEBWOX,COc1ccc2c(c1OC)C(=O)N/C2=C\c1ccccc1,1.33,225.041,350.9799128,0.641179144
MOMKAC,CCN1C(=O)c2cccc3c(Oc4c(C)cccc4C)ccc(c23)C1=O,1.3363,274.995,428.8959523,0.641169492
SACXAW,CC(=N\O)/C(=N/NC(=O)c1ccccn1)c1ccccc1,1.3264,226.455,353.1925879,0.641165777
NEGBUW,COc1ccccc1C1C[NH2+]C(C(=O)[O-])C1CC(=O)O,1.3708,216.789,338.1172913,0.64116508
MAFZUS,COC(=O)C12C(c3ccccc3N1C(C)=O)C1c3ccccc3N(C(C)=O)C12C(=O)OC,1.3817,334.545,521.7817284,0.641158902
NUGXUL,CN1C(=O)C2(CO2)c2ccccc21,1.3402,139.077,216.9155077,0.641157479
KOSNOV,Nc1ccn(C2CCC(O)C(CO)O2)c(=O)n1,1.4202,180.754,281.918778,0.641156298
KIZROC,O=C(O)c1ccccc1NCCNc1ccccc1C(=O)O,1.3519,236.352,368.6399424,0.641145933
LIMZOW,[O-][N+]1(CC(O)CO)CC[N+]([O-])(c2ccccc2)CC1,1.3539,210.862,328.8847885,0.641142453
XASTUH,COC(=O)/C(=C\c1ccc(OC)c(OC)c1)NC(=O)c1ccccc1,1.333,272.461,424.9620191,0.641142003
IHAMAH,CC1(C)Cc2c(c3ccccc3c3nc(-c4ccccc4O)oc23)O1,1.3547,260.233,405.8900661,0.641141584
LAQHET,COc1ccc(/N=C/c2ccc(-c3ccccc3)cc2)cc1,1.2652,241.622,376.8651297,0.641136526
HIVTAI,CCOC(=O)c1cnn(C(C)=O)c1N,1.3807,151.969,237.0327489,0.641130817
LANGIT,COC(=O)CCCNC(=O)c1ccc(C(=O)NCCCC(=O)OC)cc1,1.3371,289.962,452.26969,0.641126315
ZOYDOG,COc1ccc(/C(C)=N/N=C/c2ccc(C#N)cc2)cc1,1.2721,231.929,361.7545656,0.641122523
YECBAL,O=C(OCc1ccccn1)c1ccc(C(=O)OCc2ccccn2)cc1,1.3459,275.365,429.5067525,0.64111914
ZAKQEK,COC(=O)CCC1C2CCc3cc(OC)ccc3C2=CCC1(C)C(=O)N1CCOC1=O,1.352,336.4,524.7096666,0.641116452
LUTLAP,C=CC(=O)Oc1ccc(/C=C/C2=C(C#N)C(=C(C#N)C#N)OC2(C)C)c(OC)c1,1.3033,316.229,493.2514672,0.641111119
JAHLIN,CC(=O)OC1COC(n2cccn2)/C(=N\O)C1OC(C)=O,1.4217,222.478,347.0195957,0.64111077
ANIVUP,CCCOc1ccc(/N=C2\OCc3cccc(C(=O)O)c32)cc1,1.3452,246.224,384.0609781,0.641106527
LIPXAL,COc1ccc2c(c1)C(O)C(C)(C)c1c3ccccc3nn1-2,1.3317,235.146,366.7820201,0.641105581
ASULIJ,COC(=O)c1c(C(=O)OC)c2cc(N(C)C)ccn2c1C(=O)c1ccccc1,1.3528,299.157,466.6291178,0.641102299
BUGNAT,O=C1c2ccccc2C2(O)C(O)CCCN12,1.3822,168.749,263.2181272,0.641099463
HUCHUK,CN(C)c1ccc(/C=N/c2ccc3oc(=O)ccc3c2)cc1,1.312,237.038,369.7381309,0.641096982
IRUVUN,COc1ccc(NC(=O)C2CC(=O)Nc3c(-c4ccccc4OC)cnn32)c(OC)c1,1.3788,325.956,508.4401423,0.641090215
CIMLEP,CC1C(=O)OC2(C)C1C(=O)OC1CCN3CC=C(COC(=O)C2(C)O)C13,1.4108,275.54,429.8014311,0.641086744
SUXDOE,O=C1NC(=O)C2=C1NC1(CCCCC1)c1cccc3[nH]cc2c13,1.3802,236.899,369.5287108,0.641084151
YIFTOX,COc1ccc(/C=N/NC(N)=O)cc1,1.3335,154.145,240.447815,0.641074655
HUPTIY,Cc1ccc(/C(C#N)=N/O)cc1,1.2704,134.129,209.2267935,0.641069902
ULEBAP,COC(=O)C1=CC(C)(C(=O)OC)Nc2c(C(C)=O)cccc21,1.3538,238.351,371.8020261,0.641069664
TAFZOQ,COC1CC([N-][N+]#N)C(O)C(CO)O1,1.4089,153.453,239.3727449,0.641062959
XEBCAJ,c1cc2nc(c1)COCCOCc1cccc(n1)COCCOC2,1.3429,261.724,408.2659198,0.641062571
EKEVOF,COc1ccccc1N/N=C1/C(=O)OC(C(O)CO)C1=O,1.4168,220.968,344.690754,0.641061582
MILMUR,O=C(NCc1cn(Cc2ccccc2)nn1)C(=O)c1c[nH]c2ccccc12,1.3471,283.809,442.7176424,0.641060967
XIMTOD02,Cc1cc(C)c(C#N)c(OCCn2c(C)cc(C)c(C#N)c2=O)n1,1.2985,264.101,411.975838,0.64105944
OGUPEN,COC(=O)c1nc2ccccc2c(NCc2ccccc2)c1C(=O)OC,1.345,277.118,432.2827707,0.64105724
INOZIW,O=C(c1ccccc1)c1cccc2ccc(=O)[nH]c12,1.3244,200.204,312.3078766,0.641046912
EVIWOY,Cc1nc2cccc(C#Cc3ccccc3N(C)C(=O)Nc3ccccc3C#Cc3ccccc3)c2o1,1.3056,392.327,612.014317,0.641042193
CIWMUQ,COC1C23CCC(c4cccc(c42)C(=O)N(C)C3=O)C1(C)c1ccccc1,1.3377,287.408,448.3480885,0.641037639
NANBIO,CC1(C)CC(=O)C2=C(C1)O/C(=N/O)C2c1cccnc1,1.3488,214.759,335.0207465,0.641031943
XEVFOU,COC1OC(=O)C2C1ON(c1ccccc1)C2c1ccccc1,1.3601,243.497,379.8535606,0.64102861
VEBWEH,CC1=NN(c2ccccc2)C(=O)/C1=C(/C(=O)c1ccccc1)c1c(C)nn(-c2ccccc2)c1O,1.3361,368.214,574.4167038,0.641022445
BUGGUH,COC(=O)c1cc(N(C)C)c2ccccc2c1C(=O)OC,1.3298,229.831,358.5384477,0.641021908
EBIROX,OCC12COCN1COC2,1.4099,109.531,170.8700667,0.641019238
MAWLAX,O=C1C(=O)N2CCN3CCN4CCN1C4C32,1.4406,164.12,256.0312708,0.641015449
POLNOT,CC(=O)NC(C(=O)O)(c1ccccc1)c1ccccc1,1.3126,218.234,340.4510773,0.641014274
POCRAD,COC(=O)Cc1cccc2cccc(NC(=O)c3ccccn3)c12,1.3305,256.104,399.5376047,0.64100099
KIZLAI,CCOC(=O)c1nnn(-c2ccccc2)c1N,1.3575,181.991,283.9179817,0.640998499
SUGWAV,CCN(CC)c1ccc2cc(-c3cc(-c4ccccc4)n[nH]3)c(=O)oc2c1,1.3069,292.53,456.3675138,0.640996546
BAZBAF,O=C1NCCc2ccc(cc2)CCNC(=O)C2=CN(Cc3ccccc3)C=C1C2,1.3131,313.871,489.6622349,0.64099491