name,smiles,Density,Vint,Veff,pc
HAGROX,COc1nc(C)c(C#N)c(C)c1C=O,1.3326,155.314,236.8582187,0.65572561
XASFED,Nc1ncnc2c1ncn2C(CO)CCO,1.4271,170.232,259.611351,0.655718632
MIMHOI,Cc1nnc(-c2ccccn2)o1,1.3725,127.777,194.866615,0.655715193
SOWKIZ,COc1ccccc1OCC(O)COC(N)=O,1.4026,187.168,285.4430304,0.655710527
KUJRUE,O=c1c(-c2ccccc2)c(O)nc2n1CCN2Cc1ccccc1,1.3721,253.251,386.2333114,0.65569435
DEFPOT,CNc1ncnc2c1ncn2C1CC(O)C(CO)O1,1.4471,199.479,304.2319831,0.65568057
DIJGUZ01,CNC(=O)/C(C#N)=C(\O)Nc1ccc(OC)cc1,1.3786,195.157,297.640436,0.6556804
DIQKEV,O=c1ccccn1-c1ccc2c(c1)OCO2,1.417,165.249,252.0294415,0.655673397
FIPMEW,COc1cc2c(OC)cc1CCCc1c(C#N)c(C#N)c(c(C#N)c1C#N)CCC2,1.3217,326.353,497.7385293,0.655671564
GIKGAJ,CC1(C)OC(N)=C/C1=[NH+]\CC(=O)[O-],1.3911,144.082,219.7478299,0.655669729
NOKDID,CNC(=O)NC(=O)N(C)C(=O)NC,1.4192,144.302,220.0844245,0.655666571
NOTMUE,O=c1cc2n(c(=O)[nH]1)C1(CC(O)C(CO)O1)OC2,1.526,182.701,278.6560102,0.655650671
HAGFUR,CC(C)Oc1ccc2nc3c(nc2c1)C(=O)c1ncccc1C3=O,1.4016,247.875,378.0610052,0.655648154
NAKQOJ,Cc1c(-c2ccccc2)c(=O)on1C(=O)C1CC1,1.3552,195.297,297.8707907,0.65564334
FOHBUC,O=C1c2ccccc2C(=O)N1c1cccc2c1N(c1ncccn1)CC2,1.4019,265.694,405.2433473,0.655640621
BAVMAO,N#C/C=C1\Oc2c(ccc3occc23)C2=C1CCc1ccccc12,1.3589,249.249,380.1631763,0.655636883
UQEXUK,O=C(Cc1cccnc1)c1cc2ccccc2[nH]1,1.3351,192.531,293.6553782,0.655635872
NANGAK,CC(=O)C1=C(O)/C(=C(\C)Nc2ccccc2)C(=O)OC1=O,1.4171,220.561,336.4081617,0.655635104
UZEVOM,N#CCC(=O)N/N=C/c1ccc(O)cc1,1.3531,163.392,249.2182194,0.655618198
SUCLOU,COC(=O)Nc1ccccc1C(=O)CCn1c(=O)c2ccccc2n(C)c1=O,1.4028,295.795,451.1752073,0.655610049
MXEURD,COC1OC2C(CO)OC(n3ccc(=O)[nH]c3=O)C2O1,1.5218,204.662,312.1728318,0.655604778
ETIJIA,COC(=O)c1ccccc1Oc1cc(C#N)c(C#N)cc1Oc1ccccc1C(=O)OC,1.3807,337.561,514.8868318,0.655602317
ZAZBAD,[N-]=[N+]=C(C(=O)c1ccccc1)C(=O)c1ccccc1,1.3322,204.364,311.7199086,0.655601373
NOLBUL,COC(=O)c1ccccc1C(=O)CC#N,1.3433,164.57,251.0224959,0.655598613
HAWWAD,COC(=O)c1cc(C(=O)OC)c2c(n1)C(O)(CC(C)=O)C(=O)c1cc(C(=O)OC)[nH]c1-2,1.4553,321.751,490.7758557,0.655596636
ILAGUX,CC1=NN(c2ccccc2)C(=O)/C1=C(\NNC(=O)c1ccco1)c1ccccc1,1.3766,305.373,465.8002185,0.655587928
TZCTDO10,O=C1CCC(=O)NCC(=O)NCCNC(=O)CN1,1.4266,195.447,298.1271188,0.655582762
REGDAI,CC(=O)N(C1=C2C(=O)c3ccccc3C(N)=C2C(=O)C=C1)c1ccc(C)cc1,1.3673,294.689,449.5288315,0.655550833
MHQUAM,CN(c1ccc2cccc(O)c2n1)c1ccc2cccc(O)c2n1,1.3826,249.685,380.8791684,0.65554911
SEZNAM,OCCc1c2ccccc2nc2ccccc12,1.3233,183.531,279.9662851,0.655546792
YEDZAL,O=C(/C=C/c1cccnc1)Nc1cccc(NC(=O)/C=C/c2cccnc2)c1,1.3367,301.442,459.8334897,0.65554599
LIMPAB,CCOC(=O)c1c(C)n2c(=O)c3ccccc3c(=O)n2c2ccc(C)cc12,1.3936,282.87,431.506549,0.655540456
TEWCAB,COc1ccc2c(c1)OC(=O)N1CCN3C(=O)Oc4cc(OC)ccc4C3C21,1.4577,285.358,435.3039974,0.655537283
BUXLEN,O=C(O)c1ccc(Cn2ccc(-c3cnccn3)n2)cc1,1.3778,221.297,337.5870665,0.655525706
ROJPEL,COC(=O)Cn1ccnc1-c1nccn1CC(=O)OC,1.4158,213.823,326.1868619,0.65552303
WUJHAN,[O-][n+]1c(C2CC2)ccc2ccccc21,1.3258,151.96,231.8227459,0.65550082
UCIROO,COC1=CC(=O)C(c2ccc(N(C)C)cc2)=CC1=O,1.3456,207.985,317.2925713,0.655499116
PUHWAQ,N#CC1CCC2COC(=O)N12,1.4036,117.924,179.900594,0.655495334
BADSOP,CC(=O)N1C(=O)C2(OC3OC=CC32)c2ccccc21,1.4305,195.611,298.4190579,0.655490978
AKUZOV,COC(=O)C1COC(c2ccc(C3=NC(C(=O)OC)CO3)cc2)=N1,1.4231,254.019,387.5248743,0.655490826
FADLUU,COC(=O)N1C=C(C(=O)c2ccccc2)N(C(=O)OC)c2ccccc21,1.4035,273.08,416.6064078,0.655486797
JOGNOK,O=C(N/N=C/c1ccc(N(CCO)CCO)cc1)c1ccncc1,1.3671,261.277,398.6041763,0.655479836
YOBQAH,C=C1CNC(=O)O1,1.4113,76.38,116.525605,0.655478253
ZEXXUV,COc1nc(=O)n(C)c(=O)n1C,1.4496,128.449,195.9640783,0.655472172
LIJFEQ,O=Cc1ccc(/C=C/c2nc3ccccc3o2)cc1,1.3445,201.648,307.6389378,0.655469693
REZNUG,OCCn1cnnn1,1.4191,87.481,133.463702,0.655466608
VORKET,NC(=O)N/N=C/c1c(O)ccc2ccccc12,1.3881,179.635,274.0571725,0.655465421
FUROCX10,COC(=O)C1(c2ccccc2)NC(c2ccco2)C2C(=O)N(c3ccccc3)C(=O)C21,1.3941,324.904,495.6871604,0.655461803
WAMKOL,CCOC(=O)c1cnc2c(C#N)cnn2c1C,1.3836,181,276.1430121,0.65545747
FEXPOQ,Cc1ccc2[nH]c(=O)c(-c3nc4ccccc4[nH]3)cc2c1,1.3694,218.663,333.6065391,0.655451781
POCLIE,CCOC(=O)c1cc2ccc(N(CC)CC)cc2oc1=O,1.3542,232.387,354.5500047,0.655442101
YEZTOO,O=C/C=C1/C(=O)N(Cc2ccccc2)c2ccccc21,1.3338,214.693,327.5565604,0.655437948
GABBOC,c1ccc2nc3c(cc2c1)COc1ccc2ccccc2c1-3,1.3599,226.579,345.6984964,0.655423736
QOKXIY,CCOC(=O)c1[nH]c(=O)c2ccccc2c1O,1.4137,179.436,273.7738291,0.65541692
LEQPON,Nc1ccccc1-c1nnc(-c2ccccc2N)o1,1.37,200.278,305.575989,0.655411443
AHUSIF,Oc1ccccc1/C=N/c1ccc(-c2ccc(/N=C/c3ccccc3O)cc2)cc1,1.329,321.15,489.9987997,0.655409769
GAYGOC,COC(=O)C1Cc2cc(OC)c(O)cc2C(Cc2ccc(OC)c(O)c2)N1C(=O)OC,1.4122,332.287,506.9968861,0.655402447
FASXOP,Cc1ccc(C(=O)n2c3ccccc3c3ccccc32)cc1,1.3185,235.346,359.0918267,0.655392249
COKMAS,CC1(O)c2ccccc2C(=O)c2cnc3ccccc3c21,1.3671,219,334.1541513,0.655386142
QABXEZ,Cc1ccc2c(c1)cc1c(=O)n(C)c3ccccc3n12,1.3564,210.309,320.8941935,0.655384249
NUQQUM01,C/C(=N\NC(=O)c1ccccc1)c1ccccc1N,1.3269,207.609,316.7786442,0.655375619
LIDWOM,C/C(=N\Cc1ccccc1)c1c(O)cc(C)oc1=O,1.3514,207.053,315.9308006,0.65537453
JILWUZ,CCOC(=O)Cn1c(=O)cc(-c2ccccc2)[nH]c1=O,1.3938,214.019,326.562455,0.655369277
HIDTET,NC(=O)C12C3C4C1C1C2C3C41C(N)=O,1.4267,144.99,221.2359027,0.655363792
WETHIO,O=C1C=CC(=O)N1c1cccc2cc3c(nc12)-c1c(ccc2ccccc12)OC3,1.4016,293.581,447.9691741,0.655359826
HMUSCM,[NH3+]CCc1cc(=O)[n-]o1,1.3963,99.81,152.2982696,0.655358727
PUWBUH,O=C1c2ccccc2NC(c2cccnc2)N1/N=C/c1cccnc1,1.3729,260.897,398.0984721,0.655357954
YAGSAC,CC(=O)OCC1OC(n2cc(C=O)c(=O)[nH]c2=O)CC1OC(C)=O,1.4658,252.501,385.2875966,0.655357199
ZAPZOH,O=C(N/N=C/c1ccc(/C=N/NC(=O)c2ccccc2)cc1)c1ccccc1,1.3399,300.634,458.7352979,0.655353973
VODVOZ,COc1ccc(N2C(=O)C=CC2=O)cc1,1.3799,160.142,244.3644601,0.655340797
OBASOZ,[O-][n+]1c2c(cc3ccccc31)CC1c3c(cc4ccccc4[n+]3[O-])CC21,1.3894,266.402,406.5101682,0.655339081
ZUHFEN,Nc1ccc2cc(-c3ccccc3)c(=O)oc2c1,1.36,189.703,289.4804058,0.65532242
TAVJOR,COC(=O)C1C2OC(C1C(=O)OC)C1C2CN(C)C12C(=O)c1ccccc1C2=O,1.4319,303.335,462.8802782,0.65532064
FOQGIC,CC12C(c3ccccc3)=NOC1OC(=O)N2N,1.432,177.125,270.2882098,0.655319002
JAHCAX,O=C(c1ccccc1O)c1cc2n(c1-c1ccc[nH]1)CC=C2,1.3687,230.652,351.9757721,0.655306468
GOTMEJ,COc1cc(CCc2ccc(OC#N)c(OC)c2)ccc1OC#N,1.3518,260.905,398.1496806,0.655293757
MOFBIT,COC(=O)N/N=C(\C)c1ccc(O)cc1,1.3666,165.691,252.8505825,0.655292143
NEFVAY,O=C(O/N=C/c1ccco1)c1ccccc1,1.3667,171.231,261.3051282,0.655291388
OFUCIE,COc1ccc(C(=O)NN2CC(=O)N(NC(=O)c3ccccc3)CC2=O)cc1,1.4144,293.988,448.643447,0.655282055
XADDOZ,CCOC(=O)c1nc2ccccc2n(C)c1=O,1.3845,182.409,278.367646,0.655280894
VUSVOV,CN1C(=O)C2C3CC(C(O)C3O)C2C1=O,1.4558,157.778,240.7795376,0.655279936
XOQNAT,O=C([O-])CC[NH2+]CCO,1.3653,106.061,161.8563737,0.655278489
PEKBAI,CC(=O)c1c(O)c(C)c(O)c2c1OC1=Cc3onc(C)c3C(=O)C12C,1.4432,257.177,392.4708631,0.655276669
WAFJEU,Cc1ccc2nc(C)cc(-c3nnco3)c2c1,1.3562,180.6,275.6118611,0.655269332
VIDQAB,OC1CC(O)C(O)c2cncn2C1,1.4363,139.462,212.8324207,0.655266709
ZAPNUB,CC(=O)N1N=C(c2c3ccccc3cc3ccccc23)CC1c1ccccn1,1.3355,297.518,454.0417522,0.65526573
UQOLIW,COc1ccccc1Nc1nnnn1-c1ccccc1,1.3752,211.353,322.546687,0.65526328
EJEBAY,COC(=O)c1ccccc1NC(=O)C(NC(=O)c1cnc2c(n1)c(=O)[nH]c(=O)n2C)C(C)O,1.4519,341.843,521.70604,0.655240641
TRZKTN,Cn1ncnc1C(=O)c1ccccc1,1.3496,150.825,230.1837711,0.655237332
UCOPIL,COC12C(=O)c3ccccc3N1CC1NC12,1.3924,168.861,257.7124754,0.655230212
AYUVOH,COc1ccc(/C=N/c2ccc(C(C)=O)cc2)c(O)c1,1.3406,218.413,333.3403582,0.655225192
LEVWEO,COC(=O)C1=C(N)C(C)(OC)OC1=O,1.4345,152.505,232.7545609,0.655218095
MAMCUZ,O=C1CCC(=O)N1CCN1C(=O)CCC1=O,1.4265,170.913,260.8529697,0.655208182
LUYSAA,CC(C(=O)[O-])n1cc[n+](C(C)C(=O)O)c1,1.4029,164.478,251.0368247,0.655194712
CIWBIW,COc1cc(Nc2c3ccccc3nc3ccccc23)cc(OC)c1,1.3469,266.681,407.0274082,0.65519175
KEGLEQ,COc1ccc(C(=O)c2c(-c3ccccc3O)nc3ccccc3c2-c2ccccc2)cc1,1.3488,347.789,530.8209145,0.655190838
XEXYIL,COc1ccc(NC(=O)N/N=C(\CCn2ccnc2)c2ccc3c(c2)OCO3)cc1,1.399,316.647,483.29437,0.655184541
CIPLEU,COC1(C2=C(N)C(=O)N(C)C2=O)C(=O)N(C)c2ccccc21,1.4133,231.8,353.7939918,0.65518354
DAHMII01,CC(=O)OCC1OC(n2cnc3c(=O)[nH]c(N)nc32)C(OC(C)=O)C1OC(C)=O,1.5046,295.841,451.5421081,0.655179206
HAKJAF,COc1ccc2c(c1)CC1OC3OC4CC3C1C2(C#N)C4,1.4044,219.334,334.7696329,0.6551789
LUBBIV,Nc1ccc(-c2oc3ccccc3c(=O)c2O)cc1,1.3941,197.503,301.4521965,0.655171872
FORCIZ,Nc1nn(C(=O)Nc2ccc(OCc3ccccc3)cc2)c2ccccc12,1.3659,285.271,435.4141779,0.655171592
PIFHAQ,O=C1NC(=O)C2C1C(Cc1ccccc1)NC21C(=O)c2ccccc2C1=O,1.4064,278.569,425.1993303,0.655149197
GAKQUF01,O=C(N/N=C/c1ccccn1)c1ccccn1,1.3567,181.296,276.7284709,0.655140396
XIHYOC,Cc1cc(-c2ccccc2)c2c(=O)n(C)c(=O)n(C)c2n1,1.3704,223.169,340.6464816,0.65513373
NUWJEX,COn1nnc2cccnc21,1.4179,115.132,175.7387259,0.655131642
RAFKEQ,C=CCc1c2[nH]c3ccccc3nc-2c2ccccc2c1=O,1.3481,230.89,352.4332646,0.655131122
XISJEQ,O=C(C1=c2c(c(=O)oc3ccccc23)=CN2CCN=C12)c1ccccc1,1.3935,267.076,407.6727624,0.655123483
YEJSOX,COC(=O)c1nc(-c2ccccn2)c(C(=O)OC)nc1-c1ccccn1,1.4047,271.143,413.8809419,0.655123183
YOTQAA,COc1ccc(C2=CC(=O)N(c3ccccc3)C(=O)C2)cc1,1.3546,235.39,359.3167608,0.655104425
YUFSEZ,CCN(CC)c1ccc(/C=N/c2cc(C(=O)OC)cc(C(=O)OC)c2)c(O)c1,1.3473,310.19,473.5027444,0.65509652
GEJSOF,N#CC(C#N)=C(N1CCOCC1)N1CCOCC1,1.3625,198.11,302.4148529,0.655093485
GAVYOR,COC(=O)C(O)C1OC(n2ccc(=O)n(C)c2=O)C(O)C1OC,1.4797,242.688,370.4633017,0.655093227
AWIXUZ01,O=Cc1ccc(-c2nc3ccccc3nc2-c2ccc(C=O)[nH]2)[nH]1,1.387,247.916,378.4492142,0.655083934
LEHQIZ,O=C1NC(=O)C2CCC12,1.4075,96.647,147.5340496,0.655082676
QQQAJM02,Oc1ccc(/C=N/c2ccccc2)cc1,1.2918,165.965,253.3502064,0.655081369
EACDRO,CCn1c2ccccc2c(=O)c2ccccc21,1.3242,183.272,279.7760045,0.6550669
KIBZUT,Cc1ncc(CO)c2c1OC(N)=C(C#N)C2c1c(O)n[nH]c1C,1.4167,240.425,367.0240014,0.655066151
OXAZOL,C1CC(C2=NOCC2)=NO1,1.4096,108.083,164.998066,0.655056163
UWUQEK,CC(=N\NC(=O)c1ccco1)/C(=N/Nc1ccccc1)C(=O)O,1.4045,243.271,371.3755494,0.655053895
MXYLUR,CNC(=O)NC1OCC(O)C(O)C1O,1.4759,151.892,231.8812284,0.655042243
UQERAM,O=C(NC1CCC(NC(=O)c2ccncc2)CC1)c1ccncc1,1.359,259.46,396.0984651,0.655039145
LUBNED,COc1ccc(NC(=O)CCC(=O)O)cc1,1.3852,175.181,267.4372298,0.65503595
KIHZIM,Cc1ccc(-n2ncc(-c3nc4c(cnn4-c4ccc(C)cc4)c(=O)o3)c2N)cc1,1.3968,310.055,473.3436677,0.655031473
OLIZUE,CCOC(=O)C(=O)Nc1ccccc1,1.3494,155.633,237.6007908,0.655018864
LOLWAK,O=C(C(=O)c1ccccc1/N=C1/C(c2ccccc2)=Nc2ccccc21)c1ccccc1,1.3297,338.764,517.1960715,0.655001108
LETBUH,COc1nc(OC)nc(ON2C(=O)CCC2=O)n1,1.4918,185.242,282.8130696,0.654998018
OPOWUO,CCN(CC)c1ccc2c(O)c(/C=N/NC(=O)c3ccncc3)c(=O)oc2c1,1.3896,297.552,454.2850638,0.654989617
DEHREN,Nc1ccnc2c1ncn2C1CC(O)C(CO)O1,1.443,188.517,287.8219015,0.654977953
GAGKEH,Cn1c(=O)cc(-c2ccccc2)[nH]c1=O,1.375,159.845,244.0468817,0.654976613
TCYSOX,N#CC1(c2ccccc2)OC1(C#N)c1ccccc1,1.2954,206.614,315.4541508,0.654973154
MINWUE,O=C(O)c1ccc(/C=N/c2ccc(-n3ccnc3)cc2)cc1,1.3601,232.787,355.4164765,0.654969635
ZIBXAJ,CC(=O)O/C=C1\N=C(c2ccccc2)OC1=O,1.3954,180.092,274.9655109,0.654962142
SAKGIW,COC(=O)/C=C1\c2ccccc2C(=O)N1OC,1.3886,182.549,278.7224991,0.654948921
YUQTEK01,COc1ccc2cc(/C=C/C(=O)c3ccccn3)ccc2c1,1.3293,236.544,361.1649206,0.654947329
YOQGET,COC(=O)c1c(C(C)=O)c(C)n(Cc2cn(Cc3ccccc3)nn2)c1-c1ccccc1,1.34,347.528,530.6296614,0.654935118
DIXYAN,COc1cc2c3ccccc3c3cncnc3c2c(OC)c1OC,1.3903,250.416,382.3525736,0.654934784
UYAKEL,Cc1ccc(NC(=O)/C=C/c2ccc(O)c(O)c2)cc1,1.3414,218.184,333.1415566,0.6549288
WOLZAZ,Cc1cccc(NC2=CC(=O)C(Nc3cccc(C)c3)=CC2=O)c1,1.3309,259.969,396.9479422,0.654919631
JACXUJ,COc1cccc(/C=N/NC(=O)c2ccccc2)c1O,1.3623,215.627,329.2437749,0.654915951
AJUGIW,O=C1CCC2=C1NCCc1cc3c(cc12)OCO3,1.4212,186.02,284.0377818,0.654912874
BUDMAP01,Cn1c(=O)c(-c2ccccc2)nc2ccccc21,1.3406,191.529,292.4506157,0.654910572
WUWXOB01,COc1ccc(-c2ccnc(-c3cc(-c4ccc(OC)cc4)ccn3)c2)cc1,1.3348,299.956,458.0116906,0.654909047
TOVZEJ,COC(=O)c1ccccc1NC(=O)c1ccccc1NC(C)=O,1.3713,247.526,377.9563467,0.65490632
IHOXUA,O=Cc1cnc2ccccc2c1,1.3258,128.826,196.712792,0.654893862
HOTNEJ,COC(=O)c1cn(C)c(-c2nc(C(=O)OC)c(C(=O)OC)[nH]2)c1C(=O)OC,1.4465,285.018,435.2133136,0.65489265
XOFREP,CN1C(=O)C2=C(c3ccco3)N(C)C(=O)C2=C1c1ccccc1,1.3826,240.77,367.6481951,0.654892376
PEFMIW,CCOC(=O)C1=C2NC=Cc3c(OC)c(OC)c(OC)c(c32)C1=O,1.4204,253.505,387.0979571,0.654885916
HOKLUO,CC1=[N+]([O-])C23CCCCC2(C1)c1cccc(O)c1O3,1.401,201.138,307.1349555,0.654884755
WOCMEJ,Nc1ccc(C(=O)c2cnc(N)[nH]2)cc1,1.3838,158.815,242.5083946,0.654884546
PHOXTZ,c1ccc(C2=NN(c3ccccc3)N=C(c3ccccc3)O2)cc1,1.3388,254.339,388.3848096,0.654863408
YAWREV,CCOc1cccc(/C=N/c2cccc(C(=O)O)c2)c1O,1.3709,226.152,345.3477564,0.654852958
VACBOS,Cc1ccc(-c2cn3ccccc3c3c(C=O)ccc2-3)cc1,1.3173,235.366,359.418943,0.654851406
ZABQIF,O=C1c2cccc3c(-c4cccc5ccccc45)ccc(c23)C(=O)N1CCCO,1.3638,303.902,464.0821682,0.654845242
ROCPIL,COc1ccc(N2C(=O)c3ccccc3C3(CCCCO3)C2=O)cc1,1.3794,265.774,405.8579211,0.654844925
PAWCAT,COC(=O)Nc1ccc2c(COc3ccc(OC)cc3)cc(=O)oc2c1,1.4126,273.363,417.4489155,0.654841802
OKIVUC,CN1c2ccccc2C2=CC(=O)c3ccccc3C23OC=CC13,1.368,239.35,365.5144217,0.654830523
EMOZOY,N#CC(C#N)=C(c1ccccc1)c1cc2c(ccc3ccccc32)o1,1.3205,263.593,402.5366874,0.654829754
ZOJFUZ,O=CN1CCN(C=O)CCN(C=O)CC1,1.3818,167.708,256.1099243,0.654828197
FONFUM,COc1cc(OC)cc(-n2cc(C3CC(O)C(CO)O3)nn2)c1,1.417,246.431,376.3391538,0.654810953
JIQDAR,O=C1c2ccccc2N2C(=O)c3ccccc3C2N1Nc1ccccc1,1.3943,266.025,406.2668996,0.65480353
MEHPAR,CC(=O)c1nc2ccccc2[nH]1,1.3527,128.66,196.4971676,0.654767708
QORXED,O=C1c2ccccc2C2c3cccn3-c3ccccc3CN12,1.3665,227.654,347.6877308,0.654765699
DEQLIX,COC(=O)C1=C(Nc2ccc(OC)cc2)C(=O)N(c2ccc(OC)cc2)C1,1.386,288.796,441.0740768,0.654756231
VOWFIW,O=c1c2ccccc2nc2c3ccccc3n3c(=O)c4ccccc4nc3c3ccccc3n12,1.3952,342.991,523.8499406,0.65475048
DOZLIN,CC1=N/C(=C\c2ccccc2)C(=O)O1,1.3408,151.69,231.680611,0.654737569
GAHMEH,O=c1c(N2CCCC2)c(N2CCCC2)c1=O,1.3621,175.704,268.3600528,0.65473232
YARCOK,CC(=O)Oc1cccc2ccc(/C=C/c3ccc(C#N)cc3)nc12,1.3273,257.297,392.9809684,0.654731452
XOPDEO,CC1(N(CC(=O)[O-])CC(=O)O)CN(CC(=O)O)CC2CCCC[NH+]2C1,1.4133,274.78,419.6912828,0.654719341
EDERAH,O=C(NCc1cccnc1)c1ccccc1O,1.3538,183.177,279.7799164,0.654718188
QUCCUP,O=C(Oc1cccc2c(-n3cccn3)ccnc12)c1ccccc1,1.3686,250.315,382.3296432,0.654709894
HODQID,COc1cccc2c1OC1(C)CC2Nc2nc(-c3ccncc3)nn21,1.4197,256.65,392.0057309,0.654709816
PIGTAC,COc1ccc(C2C(C#N)=C(N)Oc3c2c2ccccc2oc3=O)cc1,1.3997,268.828,410.6065227,0.654709522
WOBNAC01,O=C(NNC(=O)c1ccccc1)c1ccccc1,1.3436,194.275,296.735078,0.654708575
XATWEV,CC(=O)/C(=N\Nc1ccc(C(=O)O)cc1)C(=O)c1ccccc1,1.3719,245.745,375.3512279,0.654706796
FOLBUE02,O=C1c2ccccc2C(=O)N1Cc1ccccc1,1.3531,190.491,290.9565826,0.65470593
QIMNIM,COC1=CC(=O)/C(=C\Nc2ccc(/C(C)=N/O)cc2)C=C1,1.3485,229.063,349.8725865,0.654704052
QQQGEM01,CC(=O)NC(N)=O,1.4056,78.928,120.5552684,0.654703863
XOKFOS,O=C1C2C(CO)NC3(Cc4ccccc4C3=O)C2C(=O)N1c1ccccc1,1.4079,279.633,427.1237493,0.654688484
REBTOI,COC(=O)CC1(O)C(=O)N(C(=O)OC)c2ccccc21,1.4383,210.941,322.2073012,0.654674799
TIXWAB,O=C1C(=O)c2ccccc2C2=C1C1(c3ccccc3-c3ccccc31)c1ccc3ccccc3c1N2,1.3656,367.114,560.7584255,0.654674069
BIYSEK,COC(=O)Cc1ccc(-c2cnc3c(-c4cnn(C)c4)cnn3c2)cc1,1.3821,273.056,417.0882977,0.654671928
ARUVOY,O=C(O)c1ccc(/N=N/c2ccc(N(CCO)CCO)cc2)cc1,1.3718,260.84,398.4296732,0.654670115
CEMDIJ,COc1ccc(-c2c3cc(O)c(OC)cc3cc3c2ncn3C)cc1,1.372,264.759,404.4163057,0.654669449
PAKWON,Nc1ncnc2c1ncn2C1CCC(O)C(CO)O1,1.4542,198.197,302.746598,0.654663013
WAGMIE,Cn1c(=O)c2c(-c3ccccc3)nnn2c2cccc3cccc1c32,1.3803,256.85,392.3418774,0.65465864
VUXGOK01,CC(=O)c1oc2ccccc2c1N,1.3657,139.353,212.8653169,0.654653384
IJEPOE,O=C(CCCCCCC(=O)NC12C3C4C5C3C1C5C42)NO,1.3775,228.994,349.7965506,0.654649108
QOLBUP,CCOC(=O)c1c([O-])n2ccccc2[nH+]c1=O,1.4367,177.106,270.5413606,0.654635578
RIZTAY,Cn1c2ccccc2c(=O)c2cc3c(cc21)[nH]c1ccccc13,1.3653,237.363,362.5887966,0.654634126
APOYIP,COc1ccc2cc(-n3cc(-c4ccccc4)nn3)c(=O)oc2c1,1.3977,248.18,379.1159083,0.654628293
WUNWIM,O=C1NC2c3ccccc3C(=O)NC2c2ccccc21,1.4025,204.691,312.6899471,0.654613306
ZATKUA,CCNC1=CC(=O)/C(=N\O)C=C1C,1.343,145.768,222.6785188,0.654611863
PIYNEQ,COC(=O)N1CC2CC23C(=O)c2ccccc2C=C13,1.3899,199.506,304.7713473,0.654608781
CUGPAX,C/C(=N\c1ccc(O)cc1)c1c(O)cc(C)oc1=O,1.3899,202.628,309.5443204,0.65460093
BEKCEZ,O=C1OCc2cncc(OCc3ccccc3)c21,1.3869,188.946,288.6490065,0.654587391
HAYWAI,O=C1/C(=N\Nc2ccccc2)c2cccc3cccc1c23,1.3404,220.656,337.0940731,0.654582853
HAYREF,COC(=O)Cc1[nH]nc2c1C(c1ccc(OC)cc1)C(C#N)=C(N)O2,1.4053,263.08,401.9060327,0.654580869
MIDZII,COc1ccc(C23NCCN2C(=O)c2cnncc23)cc1,1.3996,219.101,334.7203834,0.654579198
SUHVUM,COC(=O)c1n[nH]c2ccccc12,1.3884,137.838,210.5753917,0.654577911
XASQAJ,CCn1c(=O)[nH]n(C2(c3ccccc3)Cn3c(=O)n(CC)c(=O)n3-c3ccccc32)c1=O,1.4203,332.28,507.627348,0.654574662
YABSAV,O=C1NCCc2c[nH]c3cccc(c23)C1=O,1.4036,165.784,253.2713468,0.654570689
EZUQEX,Cc1ccc(/C(Cn2cc3c(=O)oc4ccccc4c3n2)=N/O)cc1,1.3879,260.887,398.5623556,0.654570097
TOHHED02,COc1cccc(-c2nc3ccccc3[nH]2)c1O,1.3789,189.261,289.1386256,0.654568374
UFEBUE,O=C1c2ccccc2C(=O)N1C/C=C/CN1C(=O)c2ccccc2C1=O,1.3915,270.352,413.0261946,0.654563811
QIMPUA,COc1cc(C2C(C#N)=C(N)Oc3cc(C)oc(=O)c32)cc(OC)c1OC,1.4181,283.692,433.4076844,0.654561537
FAKPAM,COc1ccc2c(c1OC)C(=O)CC(C)(C#N)C2=O,1.369,205.706,314.2700151,0.654551787
JEDTAN,O=C1CC2OC1C1C(c3ccccc3)=NOC21,1.4122,176.313,269.367021,0.654545606
BZTZAC01,O=C(O)Cn1nnc2ccccc21,1.4213,135.401,206.8638459,0.654541635
PAVZAP,COc1ccc(/C=N/NC(N)=O)cc1OC,1.3826,175.385,267.9536417,0.654534863
ISOPOX,O=c1c2ccccc2nc2n1CCN2,1.4086,144.352,220.5423949,0.654531751
GUZSEC,CCOC(=O)/C(C#N)=C/c1ccc(OCCCN2C(=O)c3ccccc3C2=O)cc1,1.3563,323.866,494.8096074,0.654526499
EXEVUY,O=C1NCC(CO)O1,1.4653,86.817,132.6424146,0.654519147
YEPXEZ,Cc1ccc(/N=C/c2cc(/N=N/c3ccccc3)ccc2O)cc1,1.3176,259.956,397.1742347,0.654513756
ZIQFOX,COC(=O)c1c2[nH]c3ccccc3c2c(C(=O)c2ccccc2)c2[nH]c3ccccc3c12,1.3813,328.999,502.6783258,0.654492114
ALENAJ,CCOC(=O)C(=O)Nc1ccccc1C(=O)O,1.4155,182.022,278.1123402,0.654490915
TAKJIZ,COc1cc(O)c2c(c1)OC(c1ccccc1)C/C2=N\O,1.3943,222.23,339.551918,0.654480179
RIGJAV,Cc1ccc(NC2=C/C(=N\O)c3ccccc3C2=O)cc1,1.3508,223.754,341.8877993,0.654466174
MERHUM,O=C1OCC2CCCN2C(=O)C2C3C=CC(C3)C2C1=O,1.4214,210.353,321.4135555,0.65446213
ABURAQ,O=c1c(Cc2ccccc2)c([O-])[n+]2ccccc2n1-c1ccccc1,1.3534,263.486,402.5993999,0.654461979
VEQVES01,COc1ccc(-c2nc3c4cccnc4c4ncccc4c3[nH]2)cc1,1.3828,256.304,391.6325524,0.654450194
ZAPGAA,COc1ccc(C2=C(c3ccc(OC)cc3)C(=O)NC2=O)cc1,1.3719,244.859,374.1465407,0.654446783
UHOZEW,O=C([N-][n+]1ccccc1)c1ccccc1,1.3229,162.722,248.6435158,0.654438944
HOVVUM,OCC1CCC(c2nccc3c2[nH]c2ccccc23)O1,1.3756,211.821,323.6711455,0.654432757
LANYAA,COC(=O)C1CNNC(=O)C1,1.4287,120.236,183.726197,0.654430354
AJEVAN,N/N=C/c1ccccc1O,1.3328,110.944,169.5283003,0.654427608
TAXMEM,CCn1c2ccccc2c2c3c(ccc21)C(=O)c1ccccc1-3,1.3366,241.574,369.1379423,0.654427444
LUQCAE,N#CC1(c2ccccc2)OC(N)=C(C(=O)c2ccccc2)C1=O,1.3655,242.006,369.8009564,0.65442232
UBOKON,CCn1c2ccccc2c2c(C)c3oc(=O)c4ccccc4c3c(C)c21,1.3489,274.838,419.9716109,0.654420425
WEYLIY,OCc1cn(Cc2cc(-c3ccccc3)on2)nn1,1.3861,200.783,306.8126832,0.65441558
DUHNOJ,CC1(C)OC2C(CO)OC(C34C=CC(O3)C3C(=O)NC(=O)C34)C2O1,1.4696,249.286,380.9302408,0.654413783
VUZNAG,COc1cc(-c2cc(-c3ccccc3)nc(N)c2C#N)cc(OC)c1O,1.3644,276.48,422.4854016,0.654413144
ROXMAV,COC(=O)c1cc2ccccc2c(C(=O)OC)c1N,1.3901,202.539,309.4997847,0.654407563
WIMVOG,COc1ccc(C(=O)N/N=C(/c2ccccc2)c2ccccn2)cc1,1.3423,268.078,409.6535251,0.65440179
HAHJAC,CN(C)c1ccc(/N=N/c2ccc(O)c3ncccc23)cc1,1.3475,235.591,360.0111925,0.654399099
LPYGLU09,O=C1CCC(C(=O)O)N1,1.449,96.777,147.8869083,0.654398697
HUNYEV,O=C(N/N=C(/c1ccccc1)c1ccccn1)c1ccncc1,1.3401,244.988,374.3713853,0.654398305
DAVJUI,CCN1C(C)=CC(=C2C(=O)c3ccccc3C2=O)C=C1C,1.3229,229.287,350.3791045,0.654396901
OWIGOS,O=c1c2ccccc2nc2cc(-c3ccccc3)c(-c3ccccc3)c(-c3ccccc3)n12,1.33,346.561,529.5910147,0.654393655
TIYQUP,C[n+]1ccn(C(C)(C)C)c1CC(=O)[O-],1.3148,162.093,247.7021811,0.654386648
EBACOB,O=C1c2c(c(-c3ccccc3)nc3ccccc23)C2=NCCCN12,1.3666,248.983,380.4841087,0.654384754