name,smiles,Density,Vint,Veff,pc
HUGBIX,CON1C(=O)c2ccc3ccccc3c2C1(O)C(=O)c1ccccc1,1.3483,261.035,410.2544235,0.636275894
DAJXAN,COc1cc2c(c(OC)c1OC)-c1ccc(=O)c(O)cc1C(NC(C)=O)=CC2,1.3517,299.491,470.6940261,0.636275337
YETBEE,C/C(=C1/C(=O)OC(=C(C#N)C#N)C1=C(C1CC1)C1CC1)c1cc(C)oc1C,1.276,298.222,468.6996552,0.636275271
SUWYEO,O=C1C2ON3c4ccccc4CC3(c3ccccc3)C2C(=O)N1c1ccccc1,1.3442,300.37,472.0785386,0.636271246
NORMUD,CCn1cc(C(=O)N/N=C/c2ccc(O)cc2)c(=O)c2ccc(C)nc21,1.3386,276.369,434.3634999,0.636262025
SIBXAE,CC(=O)c1cccc(C2=Cc3ccccc3N=C(c3cccc(C(C)=O)n3)C2)n1,1.3007,309.611,486.6102215,0.636260782
QAMFAN,O=C(CC(CC(=O)c1ccccn1)c1ccncc1)c1ccccn1,1.2992,269.291,423.2434781,0.636255522
WIGNEH,COc1ccc(/C(=C\C=O)n2ccc(-c3ccc(OC)cc3)n2)cc1,1.3037,270.79,425.6034146,0.636249595
REQNEH,COC(=O)C1Cc2cc(OC)c(OC)cc2C(c2ccc(C#N)cc2)N1,1.3228,281.264,442.0679735,0.636246046
EMUJOM,Cn1ncc2c1CCN(Cc1ccccc1)C2=O,1.3057,195.111,306.6603225,0.636244684
FURPOP,c1cc2ncc1CCc1ccc(o1)CC2,1.2984,162.011,254.640315,0.636234682
IJOKUN,CCOC(=O)CN(CCN1C(=O)c2ccccc2C1=O)CCN1C(=O)c2ccccc2C1=O,1.3572,349.652,549.5674279,0.636231302
WUMXUZ,CN1C(=O)/C(=N/c2ccccc2)c2ccccc21,1.2981,192.158,302.0254954,0.636231056
LEKMET,CC(C(=O)O)c1ccc(N2Cc3ccccc3C2=O)cc1,1.323,224.485,352.8369495,0.636228718
LOBNOH,N#CC1=C(c2ccccc2)OCc2ccccc2C1,1.2696,205.627,323.1992636,0.636223603
UJODON,Nc1ccccc1C(=O)/C=C/c1ccncc1,1.2909,183.405,288.2733718,0.636219013
UNUBOV,CN1C(=O)C(C)(C)C(=O)N(C)c2ccccc21,1.3079,187.504,294.7170485,0.636217012
PORVUN,CCOC(=O)/C(C#N)=C1/N(C)c2ccccc2N1N,1.3253,205.761,323.4137543,0.636215984
MUSKER,CC(=N\N=C\c1ccccc1O)/C(C)=N/N=C/c1ccccc1O,1.3033,261.14,410.4585481,0.63621528
LUTJUG,CCOC(=O)/C(=N/Nc1cccc2ccccc12)c1ccccn1,1.3086,257.651,404.9753376,0.636214051
VAWFEE,O=C1CC(c2ccccc2)(N(O)c2ccccc2)ON1c1ccccc1,1.3261,275.761,433.4411971,0.636213175
AMAYOE,CCn1cc(C(=O)N/N=C/c2ccc[nH]2)c(=O)c2ccc(C)nc21,1.3377,255.209,401.1387725,0.63621125
OTARUY,COc1ccc(OCc2nc3ccccc3n2Cc2nnc(-c3ccccc3)c(-c3ccccc3)n2)cc1,1.306,403.828,634.7418759,0.636208221
QADPER,COc1cccc(C(=O)N(C(=O)c2ccccc2)c2cccc(OC)c2)c1,1.3094,291.378,457.9920698,0.636207522
TIRCOM,CC1C2C=CC1n1c(=O)n(C)c(=O)n12,1.3769,148.151,232.8688803,0.63619922
MOJNUU01,Cc1ccc(/N=C/c2ccc(O)cc2)cc1,1.2568,177.451,278.9243994,0.63619748
PEFGIT,CC(=O)c1cn(-c2cc3c(cn2)CCC3)c2ccccc12,1.2995,224.485,352.855154,0.636195894
MEMTYR10,CC([NH3+])(Cc1cccc(O)c1)C(=O)[O-],1.3189,156.27,245.6332517,0.636192368
DASBOP,[NH3+]C1CCCCCCC1C(=O)[O-],1.2811,141.119,221.8185288,0.636191218
VACHEO,CN1C(=O)C(CC2CC(c3ccccc3)=NO2)C(=O)N(C)c2ccccc21,1.3269,289.14,454.4884008,0.636187853
TIFFEV,Cn1ccc(-c2cc(N3CCOCC3)no2)c1,1.3429,183.389,288.2665413,0.636178584
OQOSUJ,CCOC(=O)C1(C(=O)OCC)NC(n2nc(C)cc2C)=Nn2cnnc2N1,1.4019,283.465,445.5756783,0.636177004
UPIQIU,c1ccc(-c2cc(-c3ccccc3)c3c4ccccc4nc-3o2)cc1,1.2895,263.076,413.5278585,0.636174793
ZOYVIV,COc1cccc(O)c1/C=N/c1cc(OC)c(OC)c(OC)c1,1.3391,250.183,393.2641113,0.636170433
HOMBOC,CCOc1nc(OCC)nc(-n2c3ccccc3c3ccccc32)n1,1.3406,263.312,413.9026001,0.636168992
ILIPIC,Cc1ccc(C(=O)C2C3CCCN3C3(C(=O)Nc4ccccc43)C23C(=O)Nc2ccccc23)cc1,1.3465,363.403,571.2384967,0.636166859
GAVMAS,Cn1cc(/C=C2\CCCCC2=O)c2ccccc21,1.2706,198.821,312.5302708,0.636165577
DEVNUO,Cc1c(O)ccc2c(O)c(NC(=O)c3ccc4c(c3)CCC(C)(C)O4)c(=O)oc12,1.377,303.143,476.517295,0.636163688
CPGMAZ,CON1C(C#N)C1C(=O)C(=O)c1ccccc1,1.3011,186.802,293.6383195,0.636163564
BOWSAH,COC(=O)c1nn(C)c(C(=O)OC)c1C(=O)OC,1.3962,193.751,304.5617188,0.636163339
EACHOF,CN1C=CC2C3C=CC(=O)NC34C(O)CCC24C1=O,1.3812,198.95,312.7344215,0.636162783
YIPHIQ,CC(C)(C)OC(=O)C1NC(=O)OC1c1ccccc1,1.3284,209.243,328.9145045,0.636162277
PARZEO,O=C(c1ccccc1C(=O)N1CC(O)CC(O)C1)N1CC(O)CC(O)C1,1.3779,279.197,438.8778596,0.63616105
HABVEN,Cc1ccc2c(/N=N/c3ccccc3)ccc(O)c2n1,1.3119,211.863,333.0387945,0.636151114
TAGGAN,O=C(c1nc(-c2ccccc2)nc2ccccc12)N1CCOCC1,1.3301,253.459,398.4292359,0.636145587
PIJGEU,N#CC12COCC13CCCN3c1ccccc1C2,1.3199,192.185,302.1090026,0.636144565
PARZAK,COC(=O)c1ccccc1C(=O)N1CCOCC1,1.3466,195.414,307.1852363,0.636143854
EMEFOU,CC(=O)/C=C1\Nc2ccccc2N(Cc2cccc(C)c2)C1=O,1.2962,249.496,392.2009075,0.636143352
VIDLUP,CC(=O)OCC1OC(n2ccc(=O)n(C(=O)Oc3ccccc3)c2=O)C(OC(C)=O)C1OC(C)=O,1.4144,366.06,575.4363618,0.636143324
XESXEZ,O=C(CCC(=O)Nc1ccccc1O)NCCc1ccccc1,1.3063,252.427,396.8092781,0.63614188
MAYSIQ,COC(=O)c1ccccc1CN(Cc1ccccc1C(=O)OC)Cc1ccccc1C(=O)OC,1.3146,370.593,582.5664694,0.636138569
QABWAV,CCOC(=O)c1ccc(-c2cc3cccnc3c3ncccc23)cc1,1.3105,264.491,415.7787316,0.63613403
OPUTAX01,COc1cc(OC)c(OC)cc1/C=C(\C#N)c1ccccc1,1.2806,243.442,382.693794,0.636127379
KUXCAI,COC(=O)c1ccc2c(c1)-n1cccc1C1c3ccccc3C=C(c3ccccc3)N21,1.3287,321.311,505.1069503,0.636124686
XERHAD,O=c1c2ccc3c(=O)n(Cc4ccccc4)c(=O)c3c2c(=O)n1Cc1ccccc1,1.3555,308.69,485.2688589,0.636121594
CEPMOA,CC1=NN(c2ccccc2)C(=O)/C1=N\c1c(C)nn(-c2ccccc2)c1O,1.339,283.325,445.39577,0.636119647
CEGWIW,CCOC(=O)c1c(C)cn2c(nc3ccccc32)c1C,1.3077,216.583,340.4771948,0.636116026
DOJGUF,COc1ccc(C(=O)N(O)C(C)C)cc1,1.2995,169.976,267.2105303,0.636112656
YUDLUE,O=C1OCCc2c1c(-c1ccccc1)nn2-c1ccccc1,1.3204,232.085,364.850984,0.636109015
YUXCOK,CNC1(C(O)CO)CCOC1=O,1.3789,134.125,210.8530355,0.636106564
MOJDIB,CC(=O)c1ccc2c(c1)c1c(c(-c3ccccc3)c(-c3ccccc3)c3c4cc(C(C)=O)ccc4n(C)c31)n2C,1.2975,423.514,665.7951127,0.636102597
IFIBUU,Cn1c(=O)c2cnn(Cc3ccccc3)c2n(C)c1=O,1.3542,210.694,331.2268856,0.636101745
SIZVEF,CN(C(=O)c1ccc(O)cc1)c1ccc(-c2ccccc2C#N)cc1,1.2857,269.577,423.7987304,0.636096762
VOTXAG,C(=C/c1nc2ccccc2o1)\c1ccccc1,1.2822,182.131,286.3298991,0.636087955
UMOPAO01,O=C(NCc1ccccc1)c1ccc(C(=O)NCc2ccccc2)cc1,1.2826,283.427,445.5789839,0.636087002
JUHSAI,CCOC(=O)c1c2nc(c3ccc([nH]3)c(C(=O)OCC)c3ccc([nH]3)c(C(=O)OCC)c3ccc1[nH]3)C=C2,1.3675,397.165,624.3919564,0.636082826
INUQAJ,O=C1COCC(=O)NCC2OCC3OC(CN1)OCC3O2,1.4678,217.408,341.7946534,0.636077826
TECGIS,CC(=O)Nc1ccc(OCC(=O)N(C)C)cc1,1.3124,190.034,298.7613403,0.636072926
FAVXUY,CN1C(=O)C2(OC(=O)C34c5ccccc5NC(=O)C23CCN4C)c2ccccc21,1.3916,295.366,464.3588859,0.636072678
WOYREH,CN(C)/C=C1\N=C(c2ccccc2)OC1=O,1.3096,174.288,274.0064529,0.636072611
XECRON,Nc1c(-c2ccccc2)[nH]c2ccccc2c1=O,1.3086,190.568,299.6020904,0.636070328
FEVBAK,CC(=O)C1=C(C)NC(=O)NC1C,1.3176,134.749,211.8473367,0.636066528
URIBED,CC(CO)NC(=O)C(=O)C=[N+]=[N-],1.3526,133.585,210.0173945,0.636066361
PUYVOU,COc1cc(N)ccc1NC(C)=O,1.3115,145.04,228.0268782,0.636065367
KOFHEU,COCN1C(=O)/C(=C(/C#N)C(=O)c2ccccc2)c2ccccc21,1.3108,256.327,402.988705,0.636064974
LPROGL03,O=C1NCC(=O)N2CCCC12,1.3813,117.816,185.2281635,0.636058782
KEZTEQ,CN1CC(c2ccc3ccccc3c2)C(/C(=N\O)c2ccccc2)C1=O,1.2982,280.007,440.2246224,0.636054836
MIKNEC,COc1ccc(-c2nn(-c3ccccc3)cc2C=O)cc1OC,1.3164,247.219,388.6794158,0.636048604
PAMBOU,CO/C=C1\C=C(OC)C(OC)=C1C#N,1.294,157.595,247.7731894,0.636045411
HOLREG,COc1ccccc1N1C(=O)C2(c3ccccc3Oc3ccccc32)C1c1c2ccccc2cc2ccccc12,1.3219,414.834,652.2097182,0.63604388
JUMMEL,O=c1[nH]c(-c2ccccc2)c(C2CC2)c2ccccc12,1.2809,215.312,338.5183649,0.636042302
YAXYAX,OCC1NCC(O)C(O)C1O,1.4085,122.294,192.2740865,0.636039948
KAVMAY,OCC(c1ccccc1)n1cc(-c2ccccc2)nn1,1.3043,214.692,337.5456437,0.636038426
CACTUX,O=C1c2ccccc2C2(O)c3ccccc3CCN12,1.3379,198.225,311.6583752,0.636032963
LUPRAQ,CN1C(=O)/C(=C\c2ccccc2)c2ccccc21,1.271,195.367,307.1648978,0.636032963
SAFWUR,O=C(c1ccccc1O)N1CCOCC1,1.3426,162.913,256.1395021,0.636032313
WAHJAR,COc1cc2nc(N3CCN(C(=O)c4ccco4)CC3)nc(N)c2cc1OC,1.3605,297.457,467.6769007,0.636030985
OBICIL,CN1C(=O)C(=Cc2c(N3CCCC3)cnn(C)c2=O)C(=O)N(C)C1=O,1.383,263.585,414.4220066,0.636030413
DIKFEI,c1ccc2c(c1)nc1n2CCOCCOCCOCCn2c(nc3ccccc32)COC1,1.3428,343.103,539.4489712,0.636024941
SIZWOQ,CC(=O)c1ccccc1Nc1cccc2c1nc(C(C)(C)C)n2-c1ccccc1C(C)=O,1.2848,349.548,549.5830239,0.636024012
CADHEW,COC(=O)C(=C1/CCN(C(=O)c2ccccc2)C1=O)/C(=C\N(C)C)C(=O)OC,1.3356,305.362,480.1115709,0.636022997
ARUBAR,COc1cccc(C(=O)CCn2nc3ccccc3n2)c1,1.3166,225.512,354.5662603,0.636022164
WOHYEA,CCN(CC)c1ccc2cc(C(=O)N/N=C/c3ccccc3)c(=O)oc2c1,1.3166,291.326,458.0439456,0.636021942
EROQIM,C/C(=N\c1cccc(N)c1)c1ccccc1O,1.2782,186.835,293.7562854,0.636020433
WAZNOD,COC(=O)c1ccccc1N/N=N/c1ccccc1OC,1.3304,226.343,355.8748448,0.636018542
BUSTIT,N#CC12C(=O)C34C5C6OC7(c8ccccc8)C5CC(C67)C35OC1C1CCC2C4C15,1.3899,291.152,457.7757029,0.636014533
YINFOS,COC(=O)C(C)NC(=O)Nc1ccccn1,1.346,175.056,275.239751,0.636012783
FIZRUD02,COCc1cnc(C2=NC(C)(C(C)C)C(=O)N2)c(C(=O)O)c1,1.3422,240.106,377.523041,0.636003565
YAXKEP,COc1ccc(-c2ccc(C#N)cc2)cc1OC,1.2725,198.443,312.0161417,0.636002352
VIQYEC,O=C1Oc2ccccc2C12N=C2c1ccccc1,1.3218,187.82,295.3140895,0.63600081
HOMFIY,N#CC12C(=O)NC(O)(c3ccccc3)C1C2c1ccccc1,1.3091,234.047,368.0003356,0.635996703
VILPEO,c1cnc(NC2c3ccccc3Oc3ccccc32)nc1,1.3313,218.242,343.1539055,0.635988682
PRYURD10,C#CCOc1cn(C2CC(O)C(CO)O2)c(=O)[nH]c1=O,1.4051,212.024,333.3788771,0.635985105
QECTUQ,COc1ccc(/C=N/c2ccc(C(C)=O)cc2)cc1,1.2706,210.384,330.8003532,0.635984811
LAYDIB,CCCN1C(C)=C(C(N)=O)C(=O)C1(C)C(N)=O,1.33,189.883,298.5671293,0.635980928
ABABAI,Cc1ccc(-c2nc3ccc4ccccc4c3cc2CCO)cc1,1.2754,259.3,407.7241263,0.635969233
SEMZAO,COC(=O)C(Cc1c[nH]c2ccccc12)NC(NC(=O)c1ccccc1)C(=O)OC,1.3356,323.535,508.7281805,0.635968308
XIPBON,COC(=O)C1=C(O)CC2CC(O)C1N2C,1.3771,163.423,256.9704736,0.635960224
NAMPEY,CCCn1c(=O)c2cccn2c2c(=O)n(C3CCCCO3)ncc21,1.3672,253.476,398.5750215,0.635955558
EVIMAX,O=c1c2nn(-c3ccccc3)c(-c3ccccc3)c2c(-c2ccccc2)nn1-c1ccccc1,1.3136,353.869,556.4371642,0.635955006
ROCHEA,COc1ccc2c(c1OC)C(=O)OC2C1CN(C)CCc2cc3c(c(OC)c21)OCO3,1.3828,326.225,512.978773,0.635942493
IGEVIC,CC(=O)N1c2ccccc2C2=CCCC21c1ccccc1,1.2854,226.039,355.4399891,0.635941388
WUXNUB,CN1CC2=CC=CC3C(C(=O)OCC#Cc4ccccc41)C23,1.2906,238.215,374.5883445,0.6359381
UBEHOB,O=C(/C=C/c1ccccc1)c1nn[nH]c1-c1ccccc1,1.2863,225.856,355.1588233,0.635929576
NIHBOX,CC(C)[C@]1(C)N(C)C(=O)C(=C2C=CC(=[N+]([O-])[O-])C=C2)[N+]1=O,1.3465,228.319,359.0323336,0.635928797
UQIJOU,COc1ccc2c(c1OC)OCC1C2=NOC1COC(C)=O,1.3896,233.384,366.9973649,0.635928272
XATNAI,C=CCn1c(=O)c2[nH]c(-c3cc(OCC(=O)N4CCN(c5ccccc5)CC4)nn3C)nc2n(CC=C)c1=O,1.3565,412.786,649.1079144,0.635928158
KABBAS,CN(C)c1ccc(C(=O)N/N=C/c2cccnc2)cc1,1.2897,219.55,345.2436085,0.635927776
AHINEK,CC(=O)NC(c1ccccc1)C1(C)NC(=O)NC1=O,1.3489,204.417,321.4482122,0.635925142
QUYHOI,O=c1c2ccccc2n(Cc2ccccc2)c(=O)n1Cc1ccccc1,1.3074,276.351,434.5666333,0.635923191
HOXFEH,CN1c2ccccc2C2(CCC(=O)CC2)c2ccccc21,1.2872,227.369,357.5433116,0.63592016
EKEMOW,c1ccc(-c2onc3ccccc23)cc1,1.2958,158.97,249.9850348,0.635918066
IPADOS,CC1(C)OC2C(CO)OC(n3cnc4c(N)ncnc43)C2O1,1.4305,226.721,356.5304764,0.635909172
IGODEQ,C#CCN1C(=O)C2CCCN2C(=O)c2ccccc21,1.3174,203.683,320.3033546,0.635906546
KEJYOP,O=C1Cn2cccc2C2NCCN12,1.3646,137.04,215.5034487,0.635906297
FEFMAF,COc1nc(=O)n2c(c1C)CCC(O)C2,1.3697,161.979,254.7220519,0.635904896
FEJGEG,CCC1=C(C)NC(C(=O)OC)(C2(C(=O)OC)NC(C)=C(CC)C(=O)O2)OC1=O,1.3816,302.786,476.152369,0.635901488
CEBYEP,CN1C(=O)c2ccccc2C1C(O)c1ccc2ccccc2c1,1.3055,245.189,385.5771102,0.635901337
ULAWUB,CON1C(=O)NC(c2ccccc2)C1=O,1.3686,158.997,250.0353774,0.635898014
SACBUV,CC(=O)N(c1ccccc1)c1ccccc1-c1ccccn1,1.2757,238.495,375.0587697,0.635887011
QOCXEN,Cc1ccc(N2C(=O)c3c4ccccc4nc4cccc2c34)cc1C,1.3125,260.771,410.0907219,0.635886125
YIPKAM,Cc1cc(C)c2c(COc3ccc(/N=C/c4ccccn4)cc3)cc(=O)oc2c1,1.3144,308.611,485.3280279,0.635881264
NOBJUM,CN1C(=O)C2(c3ccccc31)C(C(=O)OCc1ccccc1)C1(CC1)ON2c1ccccc1,1.3267,350.342,550.9552214,0.635881078
XOFVET,N#Cc1ccc(C2C3C(=O)N(Cc4ccc5c(c4)OCO5)C(=O)C3C3CCC(=O)N32)cc1,1.3781,328.812,517.1013576,0.635875337
CUVQOZ,Cc1cccc2c(CC(=O)O)c[nH]c12,1.3159,151.724,238.6082162,0.635870811
POHNOQ,CC(=O)/C=C(/C)Nc1ccccc1NC(=O)c1cccc(C(=O)Nc2ccccc2N/C(C)=C\C(C)=O)n1,1.3081,412.669,648.9833939,0.635869891
RUPMOH,OCCCn1cc(-c2cccc(-c3cn(CCCO)nn3)n2)nn1,1.3467,258.088,405.8833696,0.635867393
KEKSUP,CCOC(=O)C12N3Cc4ccccc4CN1C(=O)N1Cc4ccccc4CN(C3=O)C12C(=O)OCC,1.3877,372.989,586.5832677,0.635867098
JEZZOD,O=C1NC23C4C5C6C4C2(N1)C6C53,1.4147,119.469,187.8855718,0.635860427
CIXNOO,Oc1ccc2ccccc2c1/C=N/c1ccc(N2CCOCC2)cc1,1.3163,266.446,419.0324431,0.635860073
QUYSUA,COc1ccc2c(c1)C(c1ccccc1)(c1ccccc1)c1cc([O-])ccc1[N+]2=O,1.3194,314.625,494.8025322,0.635859721
LABHOL,O=c1n(-c2ccccc2)c(=O)n2n1C1C=CC2C23C=CC=CC12C3,1.3614,245.957,386.8102969,0.635859495
BOSSEJ,COC1(OC)C=CC(=O)c2c1cc1onc(OCc3ccccc3)c1c2OCc1ccccc1,1.3495,357.696,562.5398324,0.635858973
GALANT,COc1ccc2c3c1OC1CC(O)C=CC31CCNC2,1.3485,213.872,336.3518436,0.635857969
NACNEK,Cc1c2c(cc(=O)n1N=C(c1ccccc1)c1ccccc1)-c1ccccc1C2=O,1.3023,316.323,497.4746342,0.635857546
NEVXUI,CCCCCCCCCCOc1ccc(C#Cc2ccc(-c3nnc(-c4ccc(OC)cc4)o3)cc2)cc1,1.262,425.265,668.8094041,0.635853798
MPXCPR,CCOC(=O)C1=CN(c2cccc(C)n2)C(=O)C1,1.3273,195.777,307.8990391,0.635848038
BUPCIA,O=C(/C=C/c1cccnc1)NCCNC(=O)/C=C/c1cccnc1,1.2938,262.905,413.4724267,0.635846511
NIWPOZ,Cc1ccc(-n2c(=O)c(N3CCOCC3)cc(=O)n2C)cc1,1.3436,236.657,372.1922227,0.635846172
COLFOB,COC(=O)C1(C)c2c([nH]c3ccccc3c2=O)C(=O)N1c1ccccc1,1.3551,271.246,426.5907595,0.635845934
KERYEL,CCOC(=O)C1=NNC2(C(=O)OCC)C(=O)C3C4CC5C(CC(=O)C53)C4C12,1.407,280.779,441.5848005,0.635843896
KEDJAH,COC(=O)C1(NC(C)=O)Cc2ccc3ccccc3c2O1,1.3565,221.917,349.0138144,0.635840161
SECHAK,CC(C)=C1C(=O)OC(=O)/C1=C/c1c(C)c2ccccc2n1C,1.3016,239.406,376.5194165,0.635839719
POMCIF,CCOC(=O)C(C#N)(Cc1ccccc1)NC(C)=O,1.2818,214.267,336.9861,0.635833347
LAFNEM,c1cc(C2=NCCO2)cc(C2=NCCO2)c1,1.3386,170.444,268.0702606,0.635818384
MIFZAC,CCOC(=O)c1ccc2[nH]c3ccccc3c2c1C,1.3063,204.58,321.7598781,0.635815755
LAPHIV,CC1(C)C(C(N)=O)CCC1(C(=O)O)C(=O)O,1.3795,175.343,275.7775966,0.635813069
XZBCNO10,O=C(O)C1CCCC2COC(=O)N21,1.4226,137.355,216.0306918,0.635812434
NAWPIK,COc1cc2c(cc1OC)C1(C(=O)O)Cc3ccccc3C(=O)N1CC2,1.3682,272.505,428.5934597,0.635812316
MXAXIN,CCOC(=O)c1c(C)n(-c2ccc(OC)cc2)c2ccc(OC(C)=O)c(O)c12,1.3481,300.072,471.9509793,0.635811796
DPYBDL,CC(O)(c1ccccn1)C(C)(O)c1ccccn1,1.2998,198.298,311.884619,0.635805641
FELFOT,O=C1c2c(ccc3ccccc23)CC2CCCN12,1.3177,189.989,298.8189829,0.635799634
TUPFIU,COC(=O)C12COc3ccc4ccccc4c3C1N1CCCC1C2c1ccccc1,1.3217,318.876,501.5389473,0.63579509
QAKCOW,O=C(/C=C\C(=O)Nc1ccccc1)Nc1ccccc1,1.2944,217.052,341.389709,0.635789522
BELTEU,c1ccc(C2=C(c3ccccc3)c3cccc4c3c(cc3nc5ccccc5nc34)O2)cc1,1.3145,339.059,533.2893581,0.635788048
IPEGUG,CN1C(=O)/C(=C/c2ccc(N(C)C)cc2)N=C1c1ccccc1,1.2765,252.391,396.9735684,0.635787922
IKIGOA,Cc1ccc(C2=NN(c3ccccc3)C3(O)c4ccccc4C(=O)C23O)cc1,1.3376,292.15,459.5101462,0.635785744
DAMPIR,COC(=O)C1=Cc2ccccc2N(C(=O)c2ccccc2)C1C(=O)OC,1.3402,276.598,435.0502784,0.635783986
FAXYIN,COc1ccc(NC(=O)COc2ccc(OCC(=O)Nc3ccc(OC)cc3)cc2)cc1,1.3409,343.42,540.1543759,0.635781205
BIZYER,O=C(c1ccccc1)n1cc(-c2ccccc2)c2c3ccccc3ccc21,1.2848,285.253,448.6657551,0.635780638
OPAXUA,O=C(c1ccccc1)N(Cc1ccccc1)c1c2ccccc2c(=O)n2c1[nH]c1ccccc12,1.3231,353.625,556.2067143,0.635779812
MUFHOK,CCC1=C2CC(c3ccc(OC)cc3)N3C(=O)N(c4ccccc4)C(N23)C1(C)C,1.3081,314.132,494.0927064,0.635775424
FIFSEU,O=C1c2ccccc2C(=O)N1c1ccccc1-c1ccccn1,1.3265,238.843,375.6722585,0.63577492
WOCFUP,Cc1cc(C)c(/N=N/c2c(C)cc(O)cc2C)c(C)c1,1.2487,226.724,356.612837,0.63577072
XAMSAF,O=C1OCCCCn2cc3c(n2)CCC1C3,1.3433,173.002,272.1158549,0.635765969
XOQJIX,CCN1C(C#N)=C(C#N)N=C(c2ccccc2)C1O,1.2921,205.986,323.9989978,0.635761226
GIJWUR,c1cc2cc(c1)OCc1cncc(c1)CC2,1.2986,171.621,269.9462383,0.635759924
SEMJID,CC(/C=C1\OC(=O)c2ccccc21)=N\N=C(c1ccccc1)c1ccccc1,1.2843,300.974,473.414947,0.635750945
MAYZAP,O=C(O)c1c[nH]c2ccc(Cc3ccccc3)cc2c1=O,1.3304,221.469,348.3584602,0.635750313
PAKFIT,COC(=O)C1(C(=O)OC)CC(C)C1N1C(=O)c2ccccc2C1=O,1.3651,256.064,402.7792382,0.635742798
COXYAR01,CC1=C(C)C(=O)N(N2C(=O)C(C)=C(C)C2=O)C1=O,1.3566,193.057,303.6717981,0.635742276
ULETAH,COc1cccc(O)c1/C=N/c1cc(C)c(C)cc1/N=C/c1c(O)cccc1OC,1.3132,324.925,511.0955621,0.635742167
VEQQIS,COc1ccc(N2CCCCn3c2nc2c3c(=O)n(C)c(=O)n2C)cc1,1.3671,274.265,431.4139918,0.63573506
UNOTUP,COc1ccc(-c2nn(C)c3c2cnn3-c2ccc(OC)cc2)cc1,1.3275,265.723,417.9870627,0.635720633
JOJDOE,COC1=N/C(=C\c2ccccc2)c2c1ccc1ccccc21,1.2807,235.019,369.6904612,0.635718323
POGKAY,COc1ccc(-c2nc3c(c4c2CCCCC4)c(=O)n(C)c(=O)n3C)cc1,1.336,288.55,453.8980893,0.635715388
MEPRPA,CN(C)C1=C2C(=O)NC(=O)N=C2NC1(C)C,1.3587,172.573,271.4643767,0.635711404
BOBZAW,O=C(c1ccccc1)c1cc(C(=O)c2ccccc2)cc(-c2ccccn2)c1,1.2835,298.666,469.8145051,0.63571047
GADLEC,O/N=C(\c1ccco1)C1CC1c1ccco1,1.335,171.652,270.0171589,0.635707748
FUMTUE,O=C1CCC23OC=CC2C(O)c2ccc(-c4cccnc4)cc2N13,1.3621,248.095,390.2685434,0.635703298
JEKMIW,CC(=O)OC1CC2c3cc4c(cc3C(=O)NC2C(OC(C)=O)C1OC(C)=O)OCO4,1.4216,311.229,489.5845391,0.635700222
MUPBAC,N#Cc1cc(C(=O)CCc2ccccc2)[nH]n1,1.282,185.347,291.5638112,0.635699606
ANAWUK,NC(=O)C1=NCCc2c1[nH]c1ccccc21,1.3552,165.988,261.1109844,0.635699032
CIHDAY,CN(C(=O)c1ccccc1)C(=O)c1ccccc1,1.2797,197.232,310.2606394,0.635697781
COLTEF,C=C(c1ccccc1)N1C(=O)CCC12CCc1ccccc12,1.2667,240.967,379.0613014,0.635694013
COZWIZ01,O=c1oc2ccccc2c2c1c1ccccc1n2Cc1ccccc1,1.3297,258.101,406.0149874,0.635693282
PUJXUO,CN1C(=O)C(Cc2cn(Cc3ccccc3)nn2)C(=O)N(C)c2ccccc21,1.325,298.898,470.1935948,0.635691348
KEDJEI,C/C(=C1/N=C(c2ccccc2)OC1=O)c1ccccc1,1.2904,215.228,338.5732643,0.635691068
VERYAT,CN(C(=O)CC(O)c1ccc2c(c1)OCO2)c1ccccc1,1.3395,235.726,370.8186843,0.635690729
VOXFET,CNC(=O)N(N=O)c1ccc(OC)cc1,1.348,163.732,257.5655166,0.635690686
WIMHAC,O=C(CN1C(=O)c2ccccc2C1=O)OC1C=CCC2C(=O)N(c3ccccc3)C(=O)C12,1.377,329.731,518.7011162,0.635685927
KUNVIY,COc1ccc(-n2ccc(=O)c(O)c2C)cc1,1.3263,183.927,289.3367229,0.635684949
HOVRUH,COc1cc2c(cc1O)C1CCC(=O)N1CC2,1.3565,181.399,285.3626864,0.635678765
POLHOQ,COc1cccc2c(-c3ccccc3)cc(C(=O)c3ccccc3)nc12,1.2914,277.203,436.0790749,0.635671409
KOMNEH01,Cc1ccc(/C=C2/C(=O)Nc3ccccc32)cc1,1.2754,194.581,306.1052103,0.635667063
BASVUM,CCOC(=O)c1cc(N)c(C(=O)OCC)cc1N,1.3427,198.201,311.8012499,0.635664546
RORDIO,O=C1c2ccccc2C(=O)N1CCCn1c2ccccc2c2ccccc21,1.3217,282.832,444.9418297,0.635660622
CIHCUR04,O=C(NC(=O)c1ccccc1)c1ccccc1,1.2805,185.543,291.8907863,0.635658982
GAPNES,COc1cccc(C(=O)N/N=C/c2ccc(O)cc2)c1,1.3163,216.599,340.7496729,0.635654315
PETBUN,O=C(NCc1ccccc1)C(=O)NCc1cccnc1,1.3101,216.83,341.1149821,0.635650767
KUXSIG,c1coc(C2=NCCN2)c1,1.3263,108.288,170.3591333,0.635645403
QEDNOF,O=c1oc2ccccc2cc1NCc1ccccc1,1.3094,202.415,318.4418362,0.635641982
ZOQDAM,COc1ccccc1/C=C(\C#N)C(N)=O,1.2877,165.642,260.5921117,0.635637046
SABPIV,Cc1nnc(-c2ccc(N(C)C)cc2)o1,1.2946,165.598,260.5264904,0.635628261
XOSFUI,N#CC1CC12C(=O)N(Cc1ccccc1)c1ccccc12,1.281,225.862,355.3380828,0.63562565
WEZXOR,O=C(O)CCNC(=O)Cc1ccc2ccc3cccc4ccc1c2c34,1.3318,262.428,412.8692541,0.635620108
MEXMEK,Cc1ccc(/C=C/c2nc3ccccc3o2)cc1,1.2726,194.994,306.7787091,0.635617774
YISDEM,COc1cc(OC)c(-c2cc(C)nc3ncnn23)c(OC)c1,1.3577,233.321,367.0788778,0.635615433
LAVWAH,COc1ccc(Oc2nc3c(oc4ccccc43)c(=O)n2-c2ccccc2)cc1,1.36,298.11,469.010837,0.635614311
IVUGEM,CCOC(=O)C1C(O)c2ccccc2C=C(c2ccccc2)N1N1C(=O)c2ccccc2C1=O,1.3508,354.869,558.3108224,0.635611895
PEQQIO,Cc1ccc(CN2C(=O)C(c3coc4ccccc34)=C(c3coc4ccccc34)C2=O)cc1,1.3327,343.038,539.6998697,0.635608825
KUTMES,CC(=O)Oc1ccccc1C1=NN(C(C)=O)C(c2ccc(-c3ccccc3)cc2)O1,1.3248,318.799,501.567267,0.635605673
PETBOH,O=C(NCc1ccccc1)C(=O)NCc1ccncc1,1.3087,217.045,341.4798947,0.63560111
QUNTIF,COc1cccc(C2Nc3cccc4cccc(c34)N2)c1O,1.3399,230.112,362.0392775,0.635599545
DALTEP,CCn1cc(C(=O)NC)c(C(=O)NC)n1,1.325,167.371,263.3293952,0.635595581
YOVYUF,COc1cccc(/C=N/c2cccc(/N=C/c3cccc(OC)n3)c2)n1,1.2997,281.097,442.2597719,0.635592513
TOLMOX,O=C(NCc1ccccc1)Nc1ccccn1,1.3008,184.272,289.9231199,0.635589187
HISFUN,C#CCn1c(=O)n(Cc2ccccc2)c2ccccc21,1.2761,216.791,341.0868146,0.63558892
AWEQAU,CC1(O)OC(C(N)=O)CC1(C)C(N)=O,1.3866,153.83,242.0305421,0.635580942
OJOSIQ,COC(=O)c1cn(C(C)c2ccc(-c3ccccn3)nc2)cn1,1.3186,246.634,388.0450759,0.6355808
EHIYEB01,COc1ccc(C(=O)N/N=C/c2ccc(C)cc2)cc1,1.2912,219.166,344.8280884,0.635580474
YUHLIY,COc1ccc2c(c1)c1c3c4cc(OC)ccc4n(C)c3c3c(c4cc(OC)ccc4n3C)c1n2C,1.3377,376.514,592.3951741,0.635579114
ZOKVIE,O=c1cc(NCc2ccccc2)c2ccccc2o1,1.3105,202.225,318.1745444,0.635578815