name,smiles,Density,Vint,Veff,pc
XERDIH01,O=C(Nc1ccccn1)Nc1ccccn1,1.3576,169.264,261.8667622,0.646374509
UTICOQ,CCOC(=O)C(=O)Nc1cccc(NC(=O)C(=O)OCC)c1C,1.373,251.818,389.5896848,0.646367216
NUYYIS,O=C1N(Cc2ccccc2)c2ccccc2C1(O)Cc1ccc2ccccc2n1,1.3291,307.004,474.96893,0.64636649
RATXES,N#Cc1c(N2CCCCC2)c2c(oc1=O)-c1cccn1CC2,1.3638,232.278,359.3608496,0.646364233
CALTAM,Cc1c2c(n(C)c1C)C(=O)C=CC2=O,1.3235,153.342,237.2380444,0.646363446
ZIXVUZ01,Oc1ccc(/N=C/c2ccco2)cc1,1.3296,151.01,233.6321926,0.646357843
LUVRAV,c1ccc(-c2cn3c(n2)OC(c2ccccc2)C3)cc1,1.3249,212.343,328.5235746,0.646355441
YIXZOX,CCOC(=O)/C(=C/c1ccc(N(C)C)cc1)n1nnc2ccccc21,1.3234,272.637,421.8112545,0.64634833
TACQAS,Cc1ccc(C(=O)Nc2cccc3cccnc23)c(O)c1,1.3309,224.281,346.9998041,0.646343304
TAWFUU,N#Cc1c(N2CCOCC2)nc(N)c2ccc(-c3ccccc3)nc12,1.3578,261.763,404.9908536,0.646342992
CASLIS,Oc1cccc2ccc(/C=C/c3ccc(/C=C/c4ccc5cccc(O)c5n4)cc3)nc12,1.3183,338.817,524.2075436,0.646341328
OCASOB,CC12CCC(=O)N1C=CC2=O,1.3543,119.72,185.2290949,0.646334746
COSKIF,C(#Cc1ccc(-c2cc(-c3ccccc3)on2)cc1)c1ccccc1,1.2788,269.513,416.9879368,0.646332846
UHOZUP,CC1(OCc2ccccc2)Oc2ccccc2NC1=O,1.3508,213.819,330.8232781,0.646323926
REPRAG,Cn1c2ccc(-c3nn(-c4ccccc4)cc3C=O)cc2c2cc(-c3nn(-c4ccccc4)cc3C=O)ccc21,1.3448,415.956,643.5753284,0.646320612
KACXIZ,COc1cc(/C=C2\C(=O)N(c3ccccc3)N=C2C)cc(OC)c1,1.3301,259.93,402.1742511,0.646311889
HAMZAZ,CN(C)C(=O)c1ccc(NC(=O)c2ccccc2)c2c1C(=O)OC2=O,1.3877,261.483,404.5778662,0.64631069
PURMOG,O=C1c2cccc3c(N4CCCCC4)ccc(c23)C(=O)N1Cc1ccccn1,1.355,293.987,454.8737297,0.646304635
GAHYIX,O=C1C2OCC(O2)C2ON(c3ccccc3)C(c3ccccc3)C12,1.3797,251.348,388.9005057,0.646304122
NMKPIP,CN1CC(=O)N(C)CC1=O,1.3647,111.732,172.8793598,0.646300404
DAVLUJ,COc1ccc(-c2cc(NC(=O)c3ccccc3)c(=O)oc2C)cc1OC,1.3564,288.904,447.0132494,0.646298517
FARSAT,Cc1c(NC(=O)c2cccnc2)c(=O)n(-c2ccccc2)n1C,1.3473,245.45,379.7789928,0.646296937
UREGII,COc1ccc(/C=N/NC(=O)c2ccc(OC)cc2)cc1,1.3375,227.981,352.7500433,0.646296164
CIPLOE,CN1C(=O)C2=C(C1=O)C1(OCN2)C(=O)N(C)c2ccccc21,1.4272,224.911,348.0029849,0.646290433
AYOMOS,O=C1C=C2NCCN=C2c2ccccc21,1.3552,156.865,242.7173163,0.64628681
FEFJIM,CCOC1=C(C2CC(=O)N(c3ccccc3)C2=O)C(=O)CO1,1.3912,232.275,359.4008011,0.646284035
OVANUX,c1ccc(-c2cnc(-c3ccc4ccccc4n3)o2)cc1,1.332,219.232,339.2198916,0.646282855
EGIWEY,CCOC(=O)c1cc(C(=O)c2ccccc2O)[nH]c1N,1.3851,212.377,328.6136378,0.646281759
XATRUF,CC(=O)Oc1c(C)n(C)c(=O)c2ccccc12,1.3462,184.226,285.0596462,0.646271763
OJUDAA,COc1ccc(-c2cc(-c3ccccc3)nc3c4ccccc4nn23)cc1,1.3412,280.972,434.7587022,0.646271135
KEHGOT,COC(=O)C(=O)/C(C(=O)OC)=C1\c2ccccc2C=NN1c1ccccc1,1.3721,284.788,440.6634308,0.646271009
PAWNIN,CCOC(=O)c1c(C(=O)c2ccc(OC)cc2)c(-c2ccccn2)n2ccccc12,1.3467,318.877,493.4107932,0.646270824
JIJKIZ,N#CCCC(=O)c1ccccc1,1.2477,136.821,211.7087507,0.646269933
PEJCOX,COC(=O)C(=O)C1(C(=O)OC)C(C)=NC(/C=C/c2ccccc2)=Nc2ccccc21,1.3555,319.969,495.101638,0.646269322
VINVOG,O=C(c1ccccc1)C1Nc2ccccc2CO1,1.3442,190.89,295.3731143,0.64626735
ECAJUQ,Nc1nc2ccccc2n1CCN1CCOC1=O,1.3879,190.305,294.4686567,0.646265725
ABEBEP,CC1(C)NC(=O)c2ccccc2NC1=O,1.3574,161.357,249.6770671,0.646262798
LEVTIP,Oc1ccccc1-c1ccccn1,1.303,140.896,218.0170438,0.6462614
YAFQEC01,Cc1cn(C2CC(O)C(C)(CO)O2)c(=O)[nH]c1=O,1.4244,192.957,298.5744829,0.646260853
BONRAA,COC(=O)c1ccc(NC(=O)c2ccccn2)c2c(Oc3ccccc3)cccc12,1.3574,314.764,487.0554933,0.646259008
JUGXIU,Nc1ccccc1-c1nnc(-c2ccco2)o1,1.3857,175.856,272.1163114,0.646253064
LICLOA,COc1cc(C2(c3ccc(N)c(OC)c3)C(=O)c3ccccc3C2=O)ccc1N,1.3597,306.347,474.03774,0.646250233
QENYOA,CN1C(=O)C2(c3ccccc31)C1CC(=O)C(C1)C2C#N,1.3502,211.505,327.2810246,0.646248894
SINCOJ,Cc1ccc(/C=C(\C#N)C(N)=O)cc1,1.2695,157.299,243.4055196,0.646242535
SEPRUB,CC(=O)Nc1[nH]cnc1-c1noc(C)n1,1.4141,157.145,243.1721817,0.646229346
REQZIW,Cc1cc(Cc2nc3ccccc3[nH]2)no1,1.3458,169.911,262.9347644,0.646209718
FOMVIN,COC(=O)c1c[nH]c2ccccc12,1.3457,139.6,216.028954,0.646209674
YEQHAD,CCOC(=O)C(O)C(O)c1c(OC)ccc[n+]1[O-],1.4109,195.535,302.5895172,0.646205466
EYOJUY,CC(=O)OCC1OC(n2cc3c(=O)cc(C)oc3nc2=O)CC1OC(C)=O,1.4355,282.644,437.396968,0.646195609
ROFYAN,COc1ccccc1C(=O)N/N=C/c1ccc(O)cc1,1.3464,215.266,333.1319032,0.646188485
EFUQUU,Cc1c(Nc2c(C=O)c(=O)oc3ccccc23)c(=O)n(-c2ccccc2)n1C,1.3759,292.555,452.741796,0.646185094
VEMHIH,CC(=O)OCC(=O)N1CCN2C(=O)CCCC21C,1.3776,197.947,306.3318284,0.646184894
PATTOW,CN1C(=O)C2(CC(=O)C(C(=O)c3ccccc3)=C2c2ccccc2)c2ccccc21,1.3299,317.209,490.8959028,0.646183841
SANVAG,N#CC1=C(N)N=C(N2CCOCC2)C1(C#N)CC(=O)c1ccccc1,1.3428,267.814,414.4552697,0.646183122
MUGMEG,NNC(=O)CCn1ccnc1-c1nccn1CCC(=O)NN,1.3853,237.147,366.9973611,0.646181758
VEXRIB,Cc1ccc(O)c(C2C3=C(NCCN4C(=O)c5ccccc5C24O)c2ccccc2C3=O)c1,1.3741,342.162,529.5139391,0.64618129
NIWQAL02,O=c1n(Cc2ccccc2)c(=O)n(Cc2ccccc2)c(=O)n1Cc1ccccc1,1.3442,318.636,493.1128247,0.646172608
MUKTES,CN1C(=O)C2(c3ccccc31)C1OC1CC1OC12,1.3865,188.13,291.1464086,0.646169743
BECNIJ,COC(=O)c1n[nH]nc1-c1ccccc1,1.3728,158.726,245.6418798,0.646168317
ILIREA,N#Cc1ccc(OC2Cc3ccccc3C2)cc1C#N,1.2967,215.227,333.0868324,0.646158836
YAHMAY,Cc1ccc(-n2cc(C(=O)c3ccccc3)nn2)cc1,1.3149,214.703,332.2789525,0.646152874
YICLEC,O=C1c2ccccc2C(=O)c2c1c(C(=O)c1ccccc1)c(-c1ccccc1)n2-c1ccccc1,1.3344,364.369,563.9077196,0.646150048
TUDZAU,Cc1nc2ccccc2c(=O)n1C(C#N)c1ccccc1,1.3165,224.221,347.0116175,0.646148396
QUYJAW,COc1ccccc1C(=O)N/N=C(\C)c1ccccc1O,1.3405,227.418,351.960599,0.64614619
ASAPOC,COC(=O)C1C(=O)n2ccc3cccc(c32)-c2ccccc21,1.3671,228.465,353.5829827,0.646142522
PEXLEJ,CC1CC(=O)c2ccc(=O)[nH]c2C1,1.3509,140.649,217.6751438,0.646141757
QUYXAL,COc1c2c(cc3c1OCO3)CCN(C)C(C(C)=O)=C2,1.3706,215.376,333.3264467,0.646141349
LOQPAK,O=C1C(c2cccc3ccccc23)=N/C(=N\c2ccccc2)N1c1ccccc1,1.3204,304.842,471.7909509,0.64613787
SUHZIF,CCC12CCCCN(C1)C(=O)c1ccc(O)cc12,1.3336,197.233,305.2505294,0.646134834
ILAKAJ,O=C1CCCc2c1nnn2-c1ccccc1,1.3499,169.375,262.1361626,0.646133667
GAWFOA01,COc1cc(/C=N/N=C/c2ccc(O)c(OC)c2)ccc1O,1.3535,237.909,368.2041656,0.646133374
TACQOD,CN1C(=O)N(C)C23NC(=O)NC2(OCCO3)C1=O,1.5157,181.28,280.5619356,0.646131841
IGOVAC,C=C(c1ccccc1)C12CCC(=O)N1C(=O)CC2,1.3185,196.21,303.6691156,0.646130904
KAMJEP01,O=C1C=C(NCc2ccccc2)C(=O)c2ccccc21,1.3261,212.872,329.4585177,0.646126867
ETBARB,CCC1C(=O)NC(=O)NC1=O,1.4263,117.393,181.6885851,0.646122044
YUQRIM,Cn1cccc1/C=N/NC(=O)c1ccncc1,1.325,184.706,285.875249,0.646107002
LINLEZ,O=c1c2ccccc2nc2n1CN(Cc1ccccc1)C2,1.3408,221.756,343.218961,0.646106495
PIKYIR,COC(=O)C1=C2c3cc(OC)c(OC)cc3CC(C(=O)OC)N2C(=O)C1=O,1.425,282.419,437.1111921,0.646103337
JUMDON,COC(=O)CN1C(=O)/C(=C/c2ccc(C(=O)OC)cc2)N=C1C,1.3673,248.047,383.9139131,0.646100575
DOZYIB,CCOC(=O)c1c(N)oc2cc3c(C(=O)OCC)c(N)oc3cc12,1.4247,250.095,387.0896671,0.646090612
LOMYIV,CCOC(=O)c1cc(O)c(C(=O)/C=C(/C)NCc2ccccc2)c(=O)o1,1.3676,280.163,433.632295,0.646084259
CUNDEV,Cn1c(=O)c2nc3cc(C4(N5CCCCC5)CCCCC4)n4nnc(-c5ccccc5)c4c3nc2n(C)c1=O,1.3791,407.856,631.2770385,0.646080841
XOSMAU,Cn1c(=O)c(C(=O)O)c(O)c2cc(Cc3ccccc3)ccc21,1.3715,241.798,374.2556612,0.646077067
TIZYOT,COc1ccc(CN2C(=O)O/C(=C\c3ccccc3)C2=O)cc1,1.3487,245.877,380.582516,0.646054376
PIWMAK,COC(=O)CCc1c(C)[nH]c(/C=C2\NC(=O)C(OC)=C2OC)c1C,1.3485,265.844,411.4899954,0.646052159
NISDIC,CCOC(=O)c1nnc(-c2ccc(C)cc2)cc1OC(C)=O,1.3535,237.875,368.2041656,0.646041034
YUVWER,Oc1ccccc1-c1ccc2ccc3cccnc3c2n1,1.3385,218.084,337.5725779,0.646035888
DATYII,O=C1N2COCN3C(=O)N4COCN1C41CCCCC231,1.4944,201.091,311.2704413,0.646033074
KOHSUV,Cc1cc(C)c(C(C)(O)C(=O)OC2C=CCC(C#N)(C#N)C2(C#N)C#N)c(C)c1,1.3065,318.723,493.3545882,0.646032301
OCIMBC,O=C1NC23CCCCC2=CC1C12CCCCC1=CC3C(=O)N2,1.3849,230.973,357.5261704,0.64603103
GIBGAC,O=C(Oc1ccccc1)n1cc(-c2ccccc2)nn1,1.3518,210.37,325.6401548,0.646019838
MORPOZ,O=C(c1ccccc1)c1c2ccccc2c2ccccn12,1.3105,221.921,343.5239872,0.646013112
VEVCOO,COC(=O)C1=CN(C(C)=O)C(O)C1,1.3826,143.595,222.2806758,0.646007574
GAVXIM,Cc1ccc(N2CC(=O)NC2=O)cc1,1.3619,149.719,231.7624366,0.646002011
OFUBID,O=C(NN1CC(=O)N(NC(=O)c2ccccc2)CC1=O)c1ccccc1,1.3891,271.925,420.9385555,0.645996895
SIYNIZ,O=C1C(=C2NCCN2)C(c2ccccc2)=NN1c1ccccc1,1.3475,242.119,374.7994672,0.645996116
GUTWUO,CCN(CC)C(=O)c1cc2cc3c4c(c2oc1=O)CCCN4CCC3,1.3526,269.789,417.6406454,0.645983582
HEQWOQ,C#CCN1C(=O)C/C(=C/C(C)=O)Nc2ccccc21,1.313,207.604,321.3767246,0.645983309
DUNYOB,Cc1ccc(NC(=O)CCC(=O)O)cc1C,1.319,179.821,278.3679182,0.645983205
YIBGUN,Cn1c2c(c3ccccc31)/C(=C/c1ccccc1)COC2=O,1.3341,232.465,359.865474,0.645977502
WOGGUX,Cc1ccc(/C=N/NC(=O)c2ccncc2)cc1,1.3029,196.86,304.7503219,0.645971426
OYIPES,COC(=O)c1nn(-c2ccc(OC)cc2)c2c1C(=O)CC2,1.3792,222.514,344.4677709,0.645964641
DUMMOO,CCOC(=O)c1[nH]c2cn[nH]c(=O)c2c1C,1.4037,168.946,261.5412955,0.645963001
WIMGIJ,C=C/C=C/OC(=O)CN1C(=O)c2ccccc2C1=O,1.3589,202.922,314.1426612,0.645954928
WANQEJ,O=C1Oc2ccccc2CC12C(c1ccccc1)C1CCCN1C21C(=O)Nc2ccccc21,1.3693,341.69,528.9697925,0.64595371
GUGCUG,C=CC(C)n1[nH]c(=O)n(-c2ccc(/N=N/c3ccc(C(=O)O)cc3)cc2)c1=O,1.378,295.122,456.8795693,0.645951406
RAYRUE,COc1ccc(C(=O)N(C)O)cc1,1.3454,144.366,223.4958429,0.6459449
LAHJUZ,NC1=NC(=O)C2=C1N=CNC(c1ccccc1)N2,1.4053,184.026,284.8961897,0.645940545
IYOXIG,O=C1c2ccccc2C(=O)N1Cc1c[nH]c2ccccc12,1.3583,218.026,337.5357805,0.645934483
CESVOL,COC(=O)C12C(=O)CCC(=O)C1CC1ON=C3CCCC2C31,1.4135,231.545,358.4667644,0.64593157
AROZIR,COc1ccc(N/C(N)=C(C#N)/C=C2\Nc3ccccc3C2=O)cc1,1.3376,266.335,412.3285265,0.645929114
BIGQAJ,O=C1CC2C/C(=N\O)C=CC2O1,1.402,127.811,197.8722671,0.645926798
NUPKEP,O=C(OCc1ccccc1)N1Cc2ccccc2C=C1c1ccccc1,1.3121,278.874,431.7504046,0.645914855
FILLAN,N#CC12C(=O)C3C4C=CC=CC3C1C42,1.325,148.195,229.4365345,0.645908466
ZUBCII,COc1ccc(C2(c3ccc(OC)cc3)C3(CC3)CC(C#N)(C#N)C2(C#N)C#N)cc1,1.3011,336.475,520.9347584,0.645906219
QOQQAO,COC(=O)Cn1cc(C=O)cc1C(=O)OC,1.3936,173.221,268.1837095,0.645904258
BIHXAS,O=C1CN(Cc2ccccc2)C(=O)CN1Cc1ccccc1,1.3202,238.968,369.9769855,0.645899635
SUJSOI,CO/N=C/c1c2ccccc2cc2ccccc12,1.2958,194.6,301.2861438,0.645897609
REZQET,Cc1nn(-c2ccccc2)c2nc3c(c(-c4ccccc4)c12)C(=O)OC3,1.3597,269.084,416.605088,0.645897056
DAJWUG,O=C(Nc1ccccc1C(=O)O)C(=Cc1ccccc1)C(=O)Nc1ccccc1C(=O)O,1.3715,336.371,520.7812155,0.645896952
QADRUK,COc1cccc(/C=N/c2ccc(N/C(C)=C3\C(=O)C=C(C)OC3=O)cc2)c1O,1.3633,308.514,477.6520725,0.645896915
PILMON,Cc1cc(NC(=O)c2cccnc2)c(NC(=O)c2cccnc2)cc1C,1.3307,278.998,431.9568841,0.645893167
RUZDOI,CN1C(=O)OC/C=C(/c2ccccc2)COC(=O)c2ccccc21,1.3537,256.012,396.3699695,0.645891515
OLEZOV,CC1(C)Cc2c(c3ccccc3c3nc4c5c(c6ccccc6c4n3c2=O)OC(C)(C)C5)O1,1.3652,342.682,530.5584069,0.645889304
WIHFEZ,O=C(c1ccc(-c2ccccc2)cc1)c1nnn2c1NCCC2,1.343,242.888,376.0553104,0.645883712
YOVKAW,COc1ccccc1NC(=O)C1(/C(C)=N/O)CC1,1.3331,199.623,309.0702745,0.645882236
CAPZIF,Cc1cccc2c(=O)oc3ccccc3c3ccccc3c3cnnn3c12,1.3578,278.932,431.8641466,0.645879039
LOLHUS,CCN1C(=O)C2NC(=O)c3cc(C)ccc3C2C1=O,1.3812,200.415,310.3110298,0.645852002
NEVNAF,COC1=CC(=O)/C(=C\Nc2ncccc2O)C=C1,1.3695,191.151,295.9672918,0.645851773
RENONE,C/C=C(/C)C(=O)OCc1nccc2c1C(=O)C(OC)=C(C)C2=O,1.3587,248.735,385.1275358,0.645850989
FOZDAC,O=C1C2=Cc3ccccc3-c3nccn3C2CCc2ccccc21,1.3345,250.847,388.3978064,0.645850713
WOYVUD,CCOC(=O)/C=C1\C(=O)Nc2ccccc2-c2c1c1ccccc1n2C(=O)OCC,1.3735,315.571,488.6132293,0.645850299
IKENEU,O=C(c1ccccn1)C1C(c2ccccn2)CC(O)(c2ccccn2)CC1(O)c1ccccn1,1.3526,358.542,555.1516682,0.645845128
COCCOM,O=C(O)C(Cc1cccc(O)c1)N1Cc2ccccc2C1=O,1.3662,233.227,361.1216801,0.645840482
QEQKUS,CC1=NN(c2ccccc2)C(=O)/C1=C\Nc1cccc2cccnc12,1.3372,263.174,407.4907882,0.645840367
VABMAQ,COC(=O)C1(OC)NC(=O)NC(c2ccc(OC)cc2OC)C1C(=O)c1ccccc1,1.3829,332.048,514.1367834,0.645835915
BERPIX,CC1C(=O)N(C)Cc2nc3ccccc3c(=O)n21,1.3733,189.848,293.9584575,0.645832753
COVLII,O=c1c2c[nH]c3ccccc3c-2nn1-c1ccccc1,1.3603,205.845,318.7285202,0.645831756
QUXJUQ,COC(=O)N1CCC2(O)c3ccccc3N3C(=O)CCCC132,1.4117,229.525,355.3952871,0.645830174
ABABIP,O=c1[nH]c2ccccc2c2c1CCc1ccccc1-2,1.3337,198.699,307.6657307,0.645827533
YIGDUQ,CCN1Cc2c(C)c(C(=O)Nc3ccccn3)c3nc4ccccn4c3c2C=C1c1ccc(C#N)cc1,1.3372,388.338,601.3045508,0.645825812
EJUPOR,O=C1/C(=C(\O)c2ccc(N(c3ccccc3)c3ccccc3)cc2)Cc2ccccc21,1.3138,329.097,509.5774808,0.64582328
BIHKEL,CN(C)c1ccc(-c2c(C=C3N(C)c4ccccc4N3C)c(=O)c2=O)cc1,1.3225,291.253,450.984275,0.645816309
NODLAT,CN1C(=O)c2c(n3ccnc3c3c2c2ccccc2n3C(=O)OC(C)(C)C)C1=O,1.3979,299.301,463.4484127,0.645812979
HIRDES,COc1ccc(C2(c3ccc(OC)cc3)c3cccnc3-c3ncccc32)cc1,1.3287,306.829,475.1119174,0.645803628
KAHFUX,CC1C(=O)N2c3ccccc3C3(CC4C(=O)NC3c3nc5ccccc5c(=O)n34)C2N1C=O,1.423,332.46,514.8019922,0.645801697
VARLUY,CC1=C(NCc2ccccn2)C(=O)c2ccccc2C1=O,1.3353,223.354,345.8563912,0.645799834
VOCKUU,CC(=O)N(CCN(C(C)=O)C(C)=O)C(C)=O,1.3358,183.133,283.5762377,0.645798116
TIJNAB,COc1cc2c(cc1OC)C(c1ccccc1)=NNC(=O)C2,1.3543,234.481,363.0882248,0.645796211
BILXUR,CC1(c2ccccn2)NC(=O)NC1=O,1.3923,147.169,227.8890848,0.645792229
WANLUS,CN1c2ccccc2C(C)(C)C12C=Nc1c(ccc3c4c(ccc13)C(=O)c1ccccc1C4=O)O2,1.3651,359.926,557.3405233,0.645791908
EFABUK,COc1ccccc1C(=O)N/N=C/c1cccc(O)c1O,1.3745,223.214,345.6456528,0.645788536
CEMBUR,CC(=O)/C=C1\NC(C(=O)c2ccccc2)=CNC1c1ccccc1,1.3108,260.274,403.0348003,0.645785425
MEMVOS,COC(=O)c1c(C(C(=O)OC)C(=O)OC)c(-c2ccccc2)n2c1c(=O)oc1ccccc12,1.4044,342.937,531.040898,0.645782653
XOLBEF,COC(c1ccccn1)(c1ccccn1)c1cccc(C(OC)(c2ccccn2)c2ccccn2)n1,1.3334,382.18,591.809277,0.645782374
EYUQUN,O=C(c1ccccc1)c1oc2ccccc2c1-c1cc(C(=O)c2ccccc2)n2cccc2c1,1.3336,354.725,549.3035851,0.645772228
NEMLOG,COc1cc(C=C(C#N)C#N)ccc1O,1.3027,164.686,255.0220878,0.645771515
PILVEO,CO/N=C(\C)c1ccc(/N=C/c2cc(C)ccc2O)cc1,1.2874,235.012,363.9245116,0.645771286
ROKTUG,C=CCn1c(/N=C/N(C)C)nc2ncc(C=O)nc2c1=O,1.3709,223.811,346.5805368,0.645769096
LOMYER,CCOC(=O)/C(=C/C(=O)c1c(O)cc(C)oc1=O)Nc1ccccc1,1.379,266.803,413.1697885,0.645746634
QAXBEX,COc1cc(OC)cc(N2CCCC2=O)c1,1.3482,175.861,272.3388846,0.645743263
QQQBTY02,O=C(O)c1ccccc1Nc1ccccc1,1.329,171.924,266.2445085,0.645737262
BASDEG,O=C1CN(Cc2ccccc2)C(=O)C23C=CC(O2)C(O)c2ccccc2N13,1.3922,278.918,431.9404731,0.645732496
LUDKEC,CC(C)COC(=O)CCn1cnc(N)nc1=O,1.3647,188.674,292.1865556,0.645731285
QEWZEZ,COC(=O)Cc1cc(=O)n(-c2ccccc2)[nH]1,1.3548,183.691,284.4700368,0.645730573
POCWOT,O=c1n(-c2ccccc2)c(=O)n2n1C1C=CC2/C(=C/c2ccccc2)C/C=C\1,1.3649,290.011,449.1220714,0.645728675
ROHHUR,Cn1c(=O)[nH]n(C2CC(O)C(O)CO2)c1=O,1.4799,167.435,259.3017199,0.645714961
VITKOB,O=C(Nc1cccc2cccc(C(=O)c3ccccc3)c12)c1ccccn1,1.3239,285.187,441.6741655,0.645695452
TODQOV,CCOC(=O)c1cc2nnnn2c2ccc(C)cc12,1.378,199.269,308.6161539,0.645685579
PEDSOG,O=c1c2ccccc2n(-n2c3ccccc3c(=O)c3ccccc32)c2ccccc12,1.3577,306.513,474.710192,0.645684473
LALJIV,NNC(=O)COc1ccc2ccccc2c1,1.3463,172.098,266.5370652,0.645681305
LIFFIR,N#COc1ccc(CCc2cc(OC#N)cc(OC#N)c2)cc1,1.3311,245.742,380.5994413,0.645670942
PUKMIU,COc1ccc(-n2c(=O)[nH]c3c(C)cccc3c2=O)cc1,1.3679,221.118,342.4636263,0.64566857
NOSROC,COC12OCc3cc4c(cc3C13CCC(=O)CC3N(C)C2=O)OCO4,1.4371,257.482,398.7950224,0.645649984
GAGGUR,C#CCOc1ccc(=O)n(CC#C)n1,1.2951,155.685,241.1320159,0.645642178
BIXLID,O=c1c2cc3ccccc3cc2c(=O)n2n1C(c1ccccc1)C=CC2c1ccccc1,1.3399,332.988,515.7570003,0.645629627
NUYJEW,CNCC(O)C(O)C(O)C(O)CO,1.3843,151.111,234.0538778,0.645624851
LONVOC,O=C(c1ccccc1)c1n[nH]c2c1CC(O)c1ccccc1-2,1.3531,229.864,356.0337294,0.645624223
YIWYEI,O=C(C#Cc1ccccc1)N(O)c1ccccc1,1.2993,195.625,303.004196,0.645618122
VAZJOW,COC12C(=O)C(C(=O)NCCO)=Cc3cccc(c31)Oc1ccc3ccccc3c12,1.3823,311.114,481.8855324,0.645618055
FOQPIN,Cc1noc(C)c1-c1ccc(O)c(O)c1,1.3574,161.972,250.8808804,0.645613168
BUBFOV,CCOC(=O)COc1cccc2ccc(/C=N/c3ccccc3O)nc12,1.3557,276.879,428.8709352,0.645599823
BEWLOE10,COC(=O)c1cc2c(C)nn(-c3ccccc3)c2o1,1.3672,200.807,311.0403788,0.64559785
TAWFII,O=C1c2ccccc2C2(O)C(O)c3ccccc3CN12,1.3906,205.909,318.9478611,0.645588277
PODJOK,COc1cc(C2NC(=O)NC(C)=C2C(C)=O)ccc1O,1.3727,215.639,334.0204984,0.645586127
KUSKEP,CCOC(=O)CN1C(=O)C2CC(O)CN2C(=O)c2ccccc21,1.3998,243.638,377.3915431,0.645584154
OZUPIK,Cc1ccc(C(=O)N2CCCCCO2)c(/C=C/C#N)c1,1.2896,224.564,347.8514394,0.645574445
ZAPNEL,Oc1ccc(OCc2ccncc2)cc1,1.3228,162.961,252.427995,0.645574196
ELOJEV01,Cc1cc(C)n(C)c(=O)c1C#N,1.2792,135.831,210.4040862,0.645572063
LILTAE,Cn1cc(C(c2ccccc2C(=O)O)c2cn(C)c3ccccc23)c2ccccc21,1.3225,319.518,494.9380667,0.645571682
AROFIW,N#C/C(=C1\C=C/C(=N\O)c2ccccc21)c1ccccc1,1.2961,225.055,348.615767,0.645567474
ZAHYUG,O=C(/C=C(\O)c1ccccc1)c1cc(Nc2ccccc2O)cc(-c2ccccc2)c1,1.3183,331.09,512.8702491,0.645562889
PAMBOO,O=C1C=Cc2ccccc2/C1=N/Nc1ccccc1O,1.3482,209.991,325.2838234,0.645562382
VUZLEI,CC1C(=O)CC(c2ccccc2)N(C(=O)C[N-][N+]#N)C1c1ccccc1,1.323,282.11,437.0009178,0.645559285
ATEYII,O=C(O)c1ccccc1-n1ncnc1Cc1ccc(O)cc1,1.3667,231.463,358.554112,0.645545518
NONQOZ,COc1ccc(N2c3ccccc3C(=C3c4ccccc4-c4ccccc43)c3ccccc32)cc1,1.3119,367.035,568.5684332,0.645542346
DICTAM,O=c1oc2ccccc2c(NCc2ccccc2)c1C(O)c1ccccc1,1.332,287.42,445.2408867,0.645538199
MIHJAO,N#[N+][N-]C1C(O)C(C2OC3CCCOC3C(O)C2[N-][N+]#N)OC2CCCOC21,1.4488,293.133,454.0926431,0.645535673
PODSIL,O=C1c2ccccc2C(=O)N1CCCO,1.3618,161.429,250.0702797,0.645534528
DEWNUP,Cc1c(/N=C/c2cccc(O)c2O)c(=O)n(-c2ccccc2)n1C,1.353,256.011,396.5888263,0.645532559
GEQXIM,COC(=O)C1=CC2(OC)CC3C(O)c4ccccc4N4C(=O)C(=O)N(C2c2ccccc2)C134,1.4099,339.212,525.479122,0.645528977
GOJROP,Cc1c2c(cc3cnc4ccccc4c13)COC2,1.3258,190.086,294.468687,0.645521947
JIFZON,Cn1c(=O)c2c(nc3n2CCCC(=O)N3Cc2ccccc2)n(C)c1=O,1.3923,271.894,421.2015225,0.645519984
PAWWIV,COC(=O)C(C)NC(=O)c1cccc(C(=O)NC(C)C(=O)OC)n1,1.379,262.062,405.970802,0.64551933
SECRAV,O=C(Nc1ccccc1Oc1ccccc1)c1cnccn1,1.3475,231.573,358.7398514,0.645517913
WOLHIQ,CCOC12CCC(C(=O)C1)C1C(=O)NC(=O)C12,1.4117,180.037,278.9037609,0.645516573
QUZNOP,O=C(N/N=C/c1ccccc1)c1ccco1,1.3363,171.723,266.026837,0.645510062
GIRSAC,C#CCOc1nc2c(oc3ccccc32)c(=O)n1-c1ccccc1,1.3612,248.914,385.6085851,0.645509487
KAHLAG,NC(=O)C1C(c2ccccc2)C(C(=O)O)C1c1ccccc1,1.326,238.574,369.5910049,0.645508134
BAWHOW,COC1=NC2C=CC1C1C=CC2C(OC)=N1,1.3664,171.102,265.0658953,0.645507412
ICULOH,COc1ccc(C(=O)Nc2ccccc2OC)cc1,1.3281,207.512,321.4734464,0.64550277
MIVMIO,COc1ccccc1C1(O)c2ccc3c(c2C2CCC1O2)c(=O)c(OC)c(C)n3C,1.3743,317.585,491.9973346,0.645501464
VOQLOD,COc1ccccc1/C=C1\N=C(c2ccccc2)OC1=O,1.3407,223.138,345.6821777,0.645500446
XABSEC,COc1cc2c(cc1OC)C(C#N)N(c1ccc(C#N)cc1)CC2,1.3198,259.187,401.5386624,0.645484543
EDALAZ,O=C1CCn2nnc(-c3ccccc3)c2-c2ccccc21,1.3424,219.667,340.3164441,0.645478653
EINACN10,CCOc1ccc(NC(=O)/C=N/O)cc1,1.3396,166.499,257.9468543,0.645477924
FIDFUW,c1cncc(COOCc2cccnc2)c1,1.3409,172.736,267.6104488,0.645475544
FAMFEH,CCOc1nc2cccc(C(=O)O)c2n1Cc1ccc(-c2ccccc2-c2noc(=O)[nH]2)cc1,1.3887,352.074,545.4537911,0.645469893
GAVJOC,COc1ccc2c(c1)-c1cc(OC)ccc1/N=C/c1ccccc1-c1ccccc1/C=N/2,1.3192,339.767,526.3871992,0.645469724
SOHCEY,CN1C(=O)c2cccc3c2c1cc1cc(-c2ccccc2)oc13,1.3479,237.843,368.4817422,0.64546753
DUNHOL,CCOC(=O)c1ccc(-n2nnc(-c3ccccc3)c2N)cc1,1.3487,244.878,379.3847684,0.64546081
YORGOC,O=C1C(O)OCCN1Cc1ccccc1,1.3617,163.008,252.5467398,0.645456758
WADMIB,Cc1cc(=O)c(-c2ccc(-n3c4ccccc4c4ccccc43)cc2)c(C)o1,1.3207,296.336,459.1157007,0.645449501
GAPSIB,Cc1c(C(=O)O)nnn1Cc1ccccc1,1.3553,171.679,265.9865426,0.645442428
WUFRAQ,COC(=O)C1=C(C)OC2=CCC3C(=O)N(C)C(=O)C3C21,1.3976,212.502,329.2386909,0.64543447
YOWJOK,CCOC(=O)c1cc2c(-c3ccccc3)n3ncnc3nc2n(C)c1=O,1.3956,268.119,415.4087867,0.645434109
CEMNOA,COc1ccc(C(=O)N/N=C/c2ccc(O)cc2O)cc1OC,1.3775,245.95,381.0711386,0.645417548
UXASUI,Nc1ccccc1OCC(=O)Nc1cccc2cccnc12,1.3509,232.553,360.3147073,0.645416341
QEGZAG,COc1ccc(-c2nn(-c3ccccc3)cc2/C=C2\C(=O)ON=C2C)cc1,1.346,285.961,443.0655884,0.645414601
UYUXOD,CCOC(=O)c1c(-c2ccccc2)nn2c(N)c(C#N)c(-c3ccccc3)nc12,1.3482,304.576,471.9176206,0.645400779
LUHFIE,O=C(N/N=C/c1ccccc1)c1ccc2c(c1)OCO2,1.3657,210.383,325.9732049,0.645399673
RUWGIZ,CC1(C)OC(=O)C(=CNC=C2C(=O)OC(C)(C)OC2=O)C(=O)O1,1.4445,241.193,373.7123297,0.645397491
TUXCOE,N#CC(C#N)=c1c2ccccc2c(=C2c3ccccc3Oc3ccccc32)c2ccccc12,1.3189,341.394,528.9723804,0.645390974
SETFED,COc1ccc(C=O)cc1OCC#N,1.3301,153.945,238.5319288,0.645385298
PITWAR,OCC1OC(n2cnc3ncccc32)CC1O,1.4285,176.378,273.2935982,0.645379186