name,smiles,Density,Vint,Veff,pc
PAMZIN,O=C1Nc2ccccc2/C1=N/NC(=O)c1cccnc1,1.4506,206.612,304.6002148,0.678305497
KEXSAJ,OCc1ccnc(-c2cc(CO)ccn2)c1,1.4103,172.583,254.4415024,0.678281642
JEJYED,O=CC(C=O)=CNc1ccccn1,1.3987,141.768,209.0247186,0.678235574
VADTAV,O=C(c1ccccc1)c1[nH]nc2c(-c3ccccc3)noc12,1.421,229.123,337.8288256,0.678222172
PAXFAX,O=c1c2cccc3cccc(c4n1CCN=4)c32,1.446,172.971,255.0379716,0.678216655
RABZOK,COC(=O)c1c(N)c2ccccc2[nH]c1=O,1.4665,167.468,246.9318906,0.678195107
UDADEJ,O=C1CC2OCC3(O)/C(=N\O)c4ccccc4C(=O)C23O1,1.5424,211.058,311.2103039,0.678184486
BOBHUV,CC1(OO)NC(=O)NC1O,1.5703,106.174,156.5619208,0.678159794
AMNNPQ10,NC1=CC(=O)c2ccccc2C1=O,1.4219,137.054,202.0978796,0.678156546
WALYEN,CC1=C2c3ccccc3N(C)C23C2C(=O)NC(=O)C2C1C1C(=O)NC(=O)C13,1.5056,271.602,400.5049396,0.678148939
TOSFAL,N=c1oc2ccccc2cc1C(N)=O,1.4474,146.316,215.7593435,0.678144444
PICQAV,Nc1nn2c(-c3ccco3)ccnc2c1/N=N/c1ccc(O)cc1,1.4737,244.591,360.6986968,0.678103365
BCYMYC,C=C1CCOC2(C(O)C(C)(O)CO)NC(=O)C1(O)NC2=O,1.5291,222.48,328.0924678,0.678101517
WABZUU,N#C/C(=C\c1ccco1)C(=O)NCc1ccco1,1.4064,193.816,285.8219692,0.678100429
MAQCIR,Cc1nonc1[N-][N+](=O)c1nonc1C,1.5411,153.479,226.3378491,0.678096927
QACLAH,O=C(NC(=O)c1ccccc1)Nc1nnc(-c2ccccc2)o1,1.4537,238.64,351.9404384,0.678069281
XENBOJ01,CN1C(=O)/C(=C2/C(=O)N(C)c3ccccc32)c2ccccc21,1.4124,231.27,341.085556,0.678041025
REGCOV,NC(=O)c1cn(C2CC(O)C(CO)O2)cc1C(N)=O,1.5092,200.765,296.096875,0.678038226
FOWQUD,CCn1c(=O)c2c(=O)c3c(=O)n(CC)c4ccccc4c3oc2c2ccccc21,1.4518,299.436,441.6599577,0.6779786
KOSKOV,C/C(=N\N=C(/C)c1c(O)cc(C)oc1=O)c1c(O)cc(C)oc1=O,1.4753,253.436,373.8132236,0.677974946
IHULAZ,CN1C(=O)CC2(Oc3ccccc3C2O)C1=O,1.4853,176.657,260.5763564,0.677947157
YEGZOC,CCN1C(=O)C(C#N)=C(C)/C(=N/Nc2ccccc2C(=O)O)C1=O,1.4455,253.963,374.6275747,0.67790792
SEFJEU,Cc1ccc(/N=N/c2ccc(O)c(/C=N/O)c2)cc1,1.3964,205.654,303.3660483,0.677907107
RATCIY,O=c1[nH]c(=O)n(C2CC(O)C(O)CO2)[nH]1,1.5854,154.132,227.3661075,0.677902268
LIPYUF,N#C/C(=C\c1ccc(O)c(O)c1)C(=O)N1CCc2ccccc21,1.4154,243.452,359.1284403,0.677896743
FINVUT,CN1C(=O)NC(=O)/C1=C/c1ccccc1,1.4181,160.409,236.6296187,0.677890625
XISYEE,COc1ccc(NC(O)=C2C(=O)c3ccccc3C2=O)cc1,1.4414,230.45,339.9592416,0.67787538
NMEQAC01,Cn1c2ccccc2c(=O)c2cc3c(cc21)c(=O)c1ccccc1n3C,1.4267,268.356,395.8822653,0.677868204
FOCCOQ,COc1ccccc1N/C=C1/C=CC=C(O)C1=O,1.4103,194.027,286.2330678,0.677863678
DAXBUA,c1ccc(-c2nnc(-c3cccc(-c4cccc(-c5nnc(-c6ccccc6)o5)c4)c3)o2)cc1,1.4081,353.441,521.4278998,0.677832928
SESPEM,COc1ccc2[nH]c(=O)oc2c1,1.4852,125.081,184.5338877,0.677821302
VIPSAP,O=c1c2nccnc2n2c(=O)n1CCOCCOCC2,1.5146,206.67,304.9091239,0.677808513
MTYROS,[NH3+]C(Cc1cccc(O)c1)C(=O)[O-],1.4179,143.737,212.0680633,0.677787111
LALQAR,CC(=O)C(=[NH+]Nc1ccc(C(=O)[O-])cc1)C(C)=O,1.4412,193.742,285.8459348,0.677784696
GIRYEM01,NNC(=O)c1cccnc1,1.414,109.097,160.961831,0.677781803
GEWGEW,CC1(CO)CC(n2cnc3c(N)nccc32)C(O)C1O,1.4659,213.555,315.080006,0.677780233
JOTFIJ,N#Cc1ccc(NC(=O)C(=O)c2ccccc2)cc1,1.3759,204.561,301.8193636,0.677759696
VICBAK,Cn1c(=O)nc2n(c1=O)C1OC(CO)C(O)C1O2,1.5968,181.189,267.3357854,0.677758123
THALID11,O=C1CCC(N2C(=O)c3ccccc3C2=O)C(=O)N1,1.4928,194.563,287.072061,0.677749689
ADOGEG01,O=c1ccc2c([nH]1)-c1ncccc1C2,1.4298,144.886,213.7754361,0.677748588
KEKJAN01,O=C1NN=C(c2ccccn2)Nc2ccccc21,1.4359,186.611,275.3427931,0.677740637
DAFBAP,O=C1COC2C(N1)OC(CO)C(O)C2O,1.5751,156.534,230.9661362,0.677735717
TIQWAS,O=Cc1cc(C(=O)c2ccccc2)c[nH]1,1.382,162.103,239.1928823,0.677708293
PUHYIC,Cn1ccc(=O)n2ncc(C(=O)N3CCOCC3)c12,1.4811,199.158,293.8722597,0.677702619
CAQYIE,O=C1C=CC=C/C1=C/Nc1ncccc1O,1.4212,169.516,250.1348595,0.677698424
TODTIS,C#CCNC(=O)CNC(=O)C[N-][N+]#N,1.4162,155.017,228.7407019,0.677697492
BEKMIN,O=c1onc2n1-c1ccccc1CC2,1.4699,143.979,212.4566799,0.677686388
UTUJEZ,O=C1c2ccccc2C(=O)c2c1c(-c1ccccc1)n1ccccc21,1.4086,258.126,380.8965926,0.677679992
MFCBXB,Cc1[n-]o[n+](=O)c1C(N)=O,1.5366,104.737,154.5755245,0.677578163
PINWEO,COC(=O)c1cc(-c2ccccc2)nnn1,1.4235,169.991,250.8917266,0.677547253
YOWXEN,CCn1c(=O)c(C#N)cc2c1nn1ccccc21,1.4163,189.105,279.1532277,0.677423656
ISIHOJ01,O=C(c1ccccc1)c1nc(-c2ccccc2)co1,1.3826,202.64,299.1614001,0.677360114
INUNUC,COc1cc2[nH]c3c(c2cc1OC)C(=O)c1ccccc1C3=O,1.4558,237.265,350.2846893,0.677349046
EVOXES,O=C1C=C(O)C=C/C1=C/Nc1ccc(O)cc1,1.4249,180.828,266.966178,0.677344229
PAHZII,O=C(O)/C=C/c1nc2ccccc2o1,1.4474,146.903,216.8883032,0.677320989
WOTMUN,O=C(C(=O)c1ccc[nH]1)c1ccc[nH]1,1.4214,148.805,219.7059756,0.677291546
GOTMAF,COc1cc(/C=C/c2ccc(OC#N)c(OC)c2)ccc1OC#N,1.3999,258.778,382.0783983,0.677290318
FOHYOS,O=c1ncccn1C1CC(O)C(CO)O1,1.4944,159.614,235.6661947,0.677288485
GOLHIB,O=C1c2ccccc2C2CC3CN3N12,1.4164,147.753,218.161047,0.677265726
INUNOW,Cn1ccc2c3[nH]c4c(c3ccc21)C(=O)c1ccccc1C4=O,1.4373,234.812,346.7120648,0.677253617
EABXIO,[N-]=[N+]=CC(=O)ON1C(=O)CCC1=O,1.5226,135.187,199.6166466,0.677233098
EYUTIE,O=C(c1ccccc1)c1cc2c(=O)c3ccccc3oc2c2cccn12,1.4263,267.352,394.7921865,0.677196786
SIYXOQ,O=C1c2ccccc2C(=O)N1Cc1ccc2ccc3cccc4ccc1c2c34,1.4198,286.014,422.3550704,0.677188508
NOJGUQ,N#Cc1c(-c2ccccc2)c2ccc3cc(O)ccc3c2oc1=O,1.4165,248.543,367.0247138,0.677183281
XOZLII,N#Cc1ccc(N/N=C2\C(=O)C=Cc3ccccc32)cc1,1.3843,221.824,327.5977794,0.677123027
YUTMOR,COC(=O)C1(C(=O)OC)C(c2ccccc2)=[N+]([O-])c2ccccc21,1.4399,253.868,374.9238103,0.677118905
DIWFIY,COC(=O)c1cc(=O)nc2n1C1(CO)OC(CO)C(O)C1O2,1.5728,224.537,331.6079417,0.67711587
WOJRAR,O=C1c2ccc3c4c(ccc(c24)C(=O)N1C1CCc2ccccc21)C(=O)N(C1CCc2ccccc21)C3=O,1.4472,387.048,571.614914,0.677113194
VEDFOZ,O=c1cc2n(c(=O)[nH]1)C1OC(CC2)C(O)C1O,1.5612,172.907,255.3599259,0.677110942
LUYQED,O=C(O)Cc1noc2ccccc12,1.4566,136.665,201.8377936,0.677103121
HIFRUL,CNC1=CC(=O)c2ccncc2C1=O,1.4291,147.962,218.5221985,0.677102835
DASTIA,CC(=O)/N=c1\c2ncn(C(C)=O)c2[nH]c(=O)n1C,1.4907,187.877,277.4753645,0.677094344
UJIGAW,O=C1C=Cc2ccc(O)c(/N=N/c3ccccc3)c2/C1=N/Nc1ccccc1,1.4211,291.251,430.1683465,0.677062835
CEPGIQ,Cc1c(NN=C2C(=O)NC(=O)NC2=O)c(=O)n(-c2ccccc2)n1C,1.5016,256.154,378.3324244,0.677060657
MONREO,O=Nc1c(-c2ccccc2)nc2ccccn12,1.4095,177.93,262.8149113,0.67701638
OVUKAS,Cc1n[nH]c(=O)n1/N=C/c1ccc(O)cc1O,1.4862,177.065,261.5431483,0.677001104
XAZWUS,NNC(=O)c1ccc(N)cc1O,1.462,128.466,189.7644135,0.676976244
AQAZOJ,COC(=O)c1[nH]c2ccccc2c1C(=O)c1cccnc1,1.4365,219.184,323.7791896,0.676955181
TOSHOY,O=C1NC2(OC(C(O)CO)C(O)C2O)C(=O)N1c1ccccc1,1.5262,238.717,352.6362233,0.676949741
DIZGOI,O=Cc1ccc(C=O)[nH]1,1.4099,98.095,144.9088491,0.676942786
EDOMUI,CNC1=CC(=O)C(O)=C(C)C1=O,1.4323,131.114,193.6863216,0.676939904
SAHGOZ,CCOC(=O)Cc1cc(C)nc2nc(N)nn12,1.4501,182.256,269.2356107,0.676938684
EWOXAP,O=c1c[n+](-c2ccccc2-c2ccccc2)[n-]o1,1.4069,190.219,281.0050908,0.676923679
XALBAN,O=c1cc(Nc2ccccn2)nc2ccccn12,1.4372,186.207,275.0937353,0.676885643
JOWVEY,O=C1C(=O)N(CN2C(=O)c3ccccc3C2=O)c2ccccc21,1.4671,234.469,346.4317175,0.676811586
VEXKOY,N#Cc1ccc2oc3ccccc3c2n1,1.4051,155.215,229.3332362,0.67680988
REZTOF,Cc1cn(C2CC(O)C(CO)(C(=O)c3ccccc3)O2)c(=O)[nH]c1=O,1.4722,264.23,390.4096163,0.676801977
LAVZUE,NC(=O)N/N=C1\C(=O)Nc2ccccc21,1.4812,154.833,228.7806395,0.676774925
CUDJAM,CC(=N\O)/C(=N/O)N1CC1C(N)=O,1.4669,142.554,210.6460065,0.676746749
FACYAJ,N#Cc1occ2cc3c(cc12)OCO3,1.4813,141.89,209.6651195,0.676745852
CDBALA,O=C1CCNC(=O)CCN1,1.4411,110.792,163.7141505,0.676740524
COYMUY,CN1CC1(C(N)=O)C(N)=O,1.4398,111.667,165.0098435,0.676729325
EVENID,Oc1ccccc1/C=N/c1cccc2c(/N=C/c3ccccc3O)cccc12,1.3869,296.672,438.392686,0.676726618
GINZIN,OCc1cccc(-c2cc(-c3cccc(CO)n3)[nH]n2)n1,1.4297,221.744,327.6733921,0.676722631
TISCAB,C/C(=N\CC/N=C(\C)c1c(O)c2ccccc2oc1=O)c1c(O)c2ccccc2oc1=O,1.4522,334.397,494.1458654,0.676717187
VIFBAQ,COC(=O)c1[n-]c2ccccc2[n+](=O)c1C(=O)OC,1.4886,197.822,292.3385248,0.676688097
SEMXOX,COC(=O)/C(C#N)=C1\NN=NN1c1ccccc1,1.4439,189.171,279.5563281,0.676682947
BEJTAL,CC12C(=O)NC(=O)N3CC(O)CN4C(=O)NC(=O)C1(C)C4C32,1.5512,223.198,329.8419951,0.676681573
XUYNAI,NC(=O)c1cn(Cc2ccccc2)cc1C=O,1.3841,185.17,273.6551195,0.676654617
XEYHER,O=c1[nH]c2ccccc2c(=O)n1CCO,1.4719,157.309,232.487545,0.676634097
DFIMZP01,OCC1OC(n2cnc3c2N=CNCC3O)CC1O,1.5092,199.612,295.0141449,0.676618404
AYUMUD,Cc1ccc(C(=O)O)cn1,1.4084,109.333,161.5885933,0.676613353
REKYUC,Oc1cccc2ccc(/C=C/c3ccc4cccnc4c3O)nc12,1.409,250.477,370.1942081,0.676609721
JIJXIJ,O=C1NC2OC(CO)C(O)C(O)C12,1.5475,137.269,202.8815622,0.676596722
BIDJIH,CN(N=O)C(N)=O,1.4877,77.815,115.013239,0.676574285
DIUREA10,O=C1NC2NC(=O)NC2N1,1.6036,99.522,147.0982132,0.676568381
HEBARB,CCC1(O)C(=O)NC(=O)NC1=O,1.5308,126.271,186.6367809,0.676560105
UZEPEW,CN1C(=O)C2ON3CCc4ccccc4C3C2C1=O,1.4574,198.964,294.0864516,0.676549358
AZTHYM10,Cc1n[nH]c(=O)[nH]c1=O,1.5185,93.981,138.9263061,0.676480954
CEBWIR,O=C1N/C(=C\c2ccc3c(c2)OCO3)c2ccccc21,1.4468,205.814,304.2450284,0.676474489
WUSDIA,O=C(c1ccc(N2c3ccccc3Oc3ccccc32)cc1)c1coc2ccccc2c1=O,1.4281,339.117,501.3030094,0.676471104
OBAKUA,O=C1Nc2cccc3c2c1cc1ccccc13,1.4094,174.604,258.1133874,0.676462394
MCVXDZ,Cc1c(/C=C/C(=O)O)[n-]o[n+]1=O,1.4989,127.429,188.3757393,0.676461844
MOVBOP,Nc1c(-c2ccccc2)oc2ccccc2c1=O,1.4058,189.439,280.0493327,0.676448675
HUBZAH,Cn1cnc(C(N)=O)c1N,1.4478,108.676,160.6574996,0.676445234
MEWZAR,O=c1cc(O)c2cccc3c2n1CC3,1.4468,145.232,214.7064993,0.67642107
WERHUX,NNC(=O)c1ccccn1,1.4075,109.379,161.7051716,0.67641003
WEZDUB,O=C1c2cccc3cccc(c23)C(=O)N1Cc1cccnc1,1.4197,227.928,336.9740444,0.676396309
BUFKIX,Cc1cc(=O)oc(=O)[nH]1,1.5037,94.884,140.2812673,0.676383967
ENIJAM,COC(=O)c1nc(N)n(C(C)=O)n1,1.4977,138.034,204.0792136,0.676374617
LUMCEE,N#Cc1ccc(C(=O)/N=c2\[nH]c3ccccc3o2)cc1,1.4216,207.84,307.2968294,0.676349315
HOMSIN,[NH3+]C(Cc1ccccn1)C(=O)[O-],1.4081,132.466,195.8545999,0.676348679
HAHWOC,CN(C)/C=C1\N=C(C(=O)c2ccccc2)OC1=O,1.4085,194.633,287.7722442,0.676343893
OXAZIL10,O=C1NCCO1,1.4946,65.4,96.69837171,0.676329899
KUSTOI,O=C(Nc1cc2ccccc2oc1=O)c1ccccc1,1.4305,208.109,307.711784,0.676311441
HAMTEV,O=Cc1ccc(N2C(=O)c3ccccc3C2=O)cc1,1.4258,197.751,292.4023836,0.676297496
GIGZUR,NC(=O)CC[NH+](CCC(N)=O)CC(=O)[O-],1.4389,169.451,250.557126,0.67629687
SAGXOP03,O=C(N/N=C/c1ccccc1O)N/N=C/c1ccccc1O,1.4405,232.398,343.6555389,0.67625274
XZHEIO,Cn1c(=O)n2n(c1=O)C1C=CC2C23CC12C1C=CC3C2C(=O)OC(=O)C21,1.5468,256.35,379.079263,0.676243797
LEYCAV,O=C(O)CCC1NC(=O)C2CCCN2C(=O)C(CO)NC(=O)CNC1=O,1.5051,276.159,408.3909234,0.676212384
AGOLIS01,O=C(NCCNC(=O)Nc1cccnc1)Nc1cccnc1,1.433,235.186,347.8029633,0.676204704
HOFPEY,O=C1c2ccccc2C(=O)N1Cn1nnc2ccccc21,1.4577,214.204,316.7869052,0.676176939
BIHKAH,COC(=O)c1nc2ccccc2c(=O)[nH]1,1.4647,156.429,231.3451418,0.676171537
NEWMOS,[NH3+]C(CC1CC(C(=O)[O-])=NO1)C(=O)O,1.5175,149.503,221.1130991,0.676138142
NOGBOA,c1ccc2oc(-c3nc4ccccc4o3)nc2c1,1.4585,181.721,268.7685114,0.676124592
KOJZIU,COC(=O)c1cc(=O)n(CCCO)c2[nH]c(=O)[nH]c(=O)c12,1.5297,216.58,320.3311568,0.676112814
VIPSIY,c1coc(-c2nc3c4cccnc4c4ncccc4c3nc2-c2ccco2)c1,1.4471,282.488,417.8134616,0.676110336
IVIZAO,O=c1c2ccccc2c2ccccc2c(=O)n1Cn1c(=O)c2ccccc2c2ccccc2c1=O,1.4334,358.838,530.7416818,0.676106687
ONULUG,N#[N+][N-]CC1CC2=C(O1)C(=O)c1ccccc1C2=O,1.4619,195.89,289.7324905,0.676106431
SOYBAJ,CCn1cc(C(=O)O)c(=O)c2cc3occc3nc21,1.4899,194.456,287.6308294,0.676061048
KUSXUS,COc1ccc(-c2cn(-c3ccccc3)c3ncn4nnnc4c23)cc1,1.4382,267.061,395.0280231,0.676055835
VOFCAW,O=C(Nc1ccc(O)cc1)c1ccccc1,1.3816,173.142,256.1081006,0.676050463
BEGROU,O=C1C2Cc3cccc(O)c3N2C(=O)C2Cc3cccc(O)c3N12,1.4934,242.128,358.1569235,0.676038865
TAGQIB,O=c1[nH]c2cc3ccccc3cc2[nH]1,1.4327,144.207,213.3427225,0.675940563
AZCYTD21,Nc1cnn(C2OC(CO)C(O)C2O)c(=O)n1,1.5643,175.136,259.1066457,0.675922455
SANKEX10,O=c1cc[nH]c2c1cnn2C1CC(O)C(CO)O1,1.5051,187.252,277.0321309,0.675921596
UTAPEM,O=C(N/N=C1\C(=O)c2cccc3cccc1c23)c1ccccc1O,1.4371,246.869,365.2427848,0.675903838
AXALER,O=C1c2occc2CN2C(=O)CCC12,1.4798,144.913,214.4014856,0.675895503
BOMQUS,Oc1ccc(/N=N/c2cc(O)cc(O)c2)cc1,1.4433,178.914,264.7078344,0.675892349
BEPKEP,COc1ccc(-n2cc(C=O)nn2)cc1,1.4199,160.514,237.4936071,0.675866614
MUXRAA,O=c1cccc2ccc3ccccc3n12,1.3928,157.188,232.5751063,0.675859091
RUCWES,c1cc2ccc1oc1cncc(n1)oc1ccc(cc1)oc1cncc(n1)o2,1.4925,279.8,413.9938162,0.675855506
VINZOJ,O=C(Nc1cccc2ncccc12)Nc1cccc2ncccc12,1.4146,249.216,368.7419011,0.675854844
CAVHUD,O=C1[N-][N+]2(CCOCC2)CC1O,1.4815,130.357,192.8882929,0.675816028
CORWAI,Cn1ccc(=O)c2cc(-c3ccccc3)oc21,1.3953,181.034,267.8751179,0.675814915
GALDAY,Cc1[nH]ccc(=O)c1O,1.4229,98.626,145.9372935,0.675810807
QOBPOM,COC(=O)c1cn(-c2ccccn2)nn1,1.4526,157.645,233.2850635,0.675761224
BIOXZL,c1cc(-c2ccon2)no1,1.4559,104.842,155.1527555,0.675734051
ETINOK,CC(=O)n1ccn(C(C)=O)c1=O,1.4495,130.093,192.5282021,0.675708798
IJEZUS,O=c1cc(-c2ccccc2)c2nc3ccccc3nc2o1,1.4296,215.118,318.3601444,0.675706441
FOYNIQ,c1ccc(-c2nnc(COCc3nnc(-c4ccccc4)o3)o2)cc1,1.4343,261.375,386.8210303,0.675700077
ARFHCY,Nc1cc2n(c(=O)n1)C1OC(CO)C(O)C1O2,1.5773,171.49,253.8011963,0.675686335
YIRTAV,N#CCCN1C(=O)c2ccccc2C1=O,1.4031,159.984,236.7737679,0.675682958
EKEPIT01,COc1ccc(OC)c2nc(-c3ccccn3)c(-c3ccccn3)nc12,1.4114,273.57,404.8872305,0.675669617
ZITMAS,CC(=O)C(C)(C)C12C(=O)NC(=O)C1C(=O)NC2=O,1.496,189.053,279.8095698,0.6756488
YUZQES,O=C1/C(=C(\O)c2cccnc2)Cc2ccccc21,1.3974,190.35,281.732755,0.675640289
WARWOB,NC(=O)CNC(=O)NCC(N)=O,1.491,130.989,193.8762084,0.675632152
YUDROH,CC(=O)/C=C(/C)Nc1cc(C(=O)O)ccc1O,1.418,186.003,275.3041262,0.67562736
TANZAJ,Cc1cc(N)nc(=O)n1C1OC(CO)C(O)C1O,1.52,189.771,280.8830289,0.675622877
LADVOE,CCOC(=O)/C=C1\NC(=O)N(c2ccccc2)C1=O,1.4467,201.687,298.5334631,0.675592605
LOTYEY,O=C1NC2C=CC(O)C(O)C2O1,1.536,124.936,184.9289543,0.675589177
DAVLOE,O=C1Cc2ccccc2N1c1ccccn1,1.3906,169.483,250.8684792,0.675585074
YUHTIE,CC1(C)NC(=O)[N-][N+]1=O,1.5086,95.966,142.0567309,0.675547011
DOZMIO,COc1ccc2c(c1)OC(OC1OC(CO)C(O)C(O)C1O)C(=O)N2,1.5425,259.706,384.4474504,0.675530556
VAPQAG,O=c1c2ccccc2oc2cc3ccccc3n12,1.4394,183.188,271.1867191,0.675505057
XALQAC,O=C1NCC(O)C(O)CC1O,1.5068,119.904,177.5091998,0.675480483
VEFMOI,Nc1n[n+](-c2ccccc2)nc(=O)[n-]1,1.4696,144.306,213.6373425,0.675471799
GEYDAS,N#Cc1c(-c2ccccc2)c2c(=O)n(-c3ccccc3)c3nc4ccccc4n(c1=N)c23,1.417,327.026,484.1494654,0.675464962
FORZAQ01,O=C1NC(Cc2ccc(/N=C/c3ccc(O)cc3)cc2)CO1,1.4038,236.604,350.2852137,0.675460998
DETGIS,O=c1c[n+](-c2ccc(OCc3ccccc3)cc2)[n-]o1,1.4215,211.539,313.1773521,0.675460721
ENUKIK,Cc1c2nccnc2cc2oc3ccc4ccccc4c3c12,1.4166,224.943,333.0284453,0.675446807
SOGVEP,COc1ccc(-c2nnc3c4ccccc4cnn23)cc1,1.4188,218.269,323.1558394,0.67542954
GETWAF,O=C1C(O)C(O)C(=O)N1Cc1ccccc1,1.4523,170.725,252.7761911,0.675399844
ROZRAB06,N#[N+][N-]C1OC2COC(c3ccccc3)OC2C(O)C1O,1.5042,218.539,323.5765217,0.675385837
ZIMWIE,CC1(O)c2ccccc2C(=O)c2c3ccccc3nn21,1.4282,207.384,307.063192,0.675378897
SECCOV,Nc1ccccc1C(=O)OCC(=O)c1cc2ccccc2o1,1.4394,229.915,340.4316041,0.675363266
HXQUIO,O=c1ccc2ccccc2[nH]1,1.3837,117.567,174.0800894,0.675361556
HMPYRO10,[O-][n+]1ccccc1CO,1.4117,99.342,147.0951157,0.67535893
EVERED02,COc1cc(/C=N/NC(N)=O)ccc1O,1.4522,161.467,239.0843661,0.675355744
EROFOI,O=c1oc2ccccc2cc1-n1cc2ccccc2n1,1.4348,204.845,303.3178578,0.675347642
BSCCNM,O=C1CCC(=O)N1N1C(=O)CCC1=O,1.5115,145.461,215.3873531,0.675346059
SAPLOM,COc1ccc(Nc2cccccc2=O)cc1,1.3827,184.187,272.7369208,0.675328443
EWOCAV01,O=c1c(Nc2ccccc2)c(Nc2ccccc2)c1=O,1.3897,213.11,315.5700157,0.675317646
NMACRO10,Cn1c2ccccc2c(=O)c2ccccc21,1.3733,170.726,252.8253088,0.675272586
HOHRIF01,O=C(N/N=C/c1ccco1)c1ccncc1,1.4159,170.323,252.2384157,0.675246074
DOQWEN01,COC1=CC=C/C(=C/Nc2ncccc2O)C1=O,1.4301,191.379,283.4257787,0.67523498
PODXOY,COc1ccc2oc(=O)cc(Cn3cnc4c3c(=O)n(C)c(=O)n4C)c2c1,1.4888,277.243,410.5903431,0.675230201
METSAI,Cn1c(=O)c2c(ncn2Cc2cc(=O)oc3ccc4ccccc4c23)n(C)c1=O,1.471,295.836,438.1423165,0.675205267
VORMUL,Cc1ccc(-c2nc3ccc4c(c3[nH]2)C(=O)c2ccccc2C4=O)cc1,1.4136,268.175,397.1831064,0.675192363
XADDUF,O=C(NCCO)c1nc2ccccc2[nH]c1=O,1.4615,178.811,264.8325121,0.675185228
FADTIQ,Cc1c(/C=N/n2nnnc2N)[n-]o[n+]1=O,1.5448,152.458,225.8078156,0.675167065
TEWKOX01,COC1=CC=C/C(=C/Nc2ccc(C)cc2O)C1=O,1.391,207.225,306.9366528,0.67513931
WAJZEM,Nc1ncnc2c1ncn2CC1CCOC1=O,1.4895,175.445,259.8666469,0.675134736
QEDXAY,OCC(O)C(O)C(O)C(O)/C=N/O,1.5023,145.573,215.6296088,0.67510673
VOVGIZ,O=C(c1ccccc1)c1ccc2nc3c4cccc5cccc(c(=O)n3c2c1)c54,1.4174,295.887,438.2952161,0.675086082
KUHKOP,O=c1oc2ccccc2c2cc3c(nc12)-c1ccccc1OC3,1.4468,233.285,345.5649067,0.675083018
LIWGUU,C[n+]1ccccc1C(=O)[O-],1.3912,110.431,163.5863822,0.675062304
FEMCEF,COC1NC(=O)NC(=O)N1,1.5555,104.532,154.8492057,0.67505674
VAFZUZ,COC(=O)n1ccc(-c2ccc(-c3ccn(C(=O)OC)n3)cc2)n1,1.4524,251.684,372.8478098,0.675031456
AMXPYZ,COc1cncc(N)n1,1.4265,98.269,145.5820743,0.675007555
YEGQAF,COc1ccc2oc(=O)c(-c3ccccn3)cc2c1,1.4244,199.152,295.0396708,0.675000753
JUTKAK01,O=C([O-])c1ccccc1/[NH+]=C/c1ccccc1O,1.4093,191.739,284.0610992,0.674992108
QISCON,O=C(O)Cc1ccc(-n2cnnc2)cc1,1.4328,158.862,235.355369,0.674987788
ZUHGOY,O=C(O)CCN1C(=O)c2ccccc2C1=O,1.4622,167.916,248.7755941,0.674969748
DUNBUK,Nn1c(-c2ccccc2O)nnc1-c1ccccc1O,1.4424,208.331,308.6524265,0.674969584
OHAKAL,Cc1[nH]c(=O)cc(-c2ccccc2)c1C#N,1.3554,173.723,257.3835821,0.674957581
SEWRIW,COc1cccc(CNC(=O)C(=O)NCc2cccc(OC)c2O)c1O,1.4413,280.044,414.9277913,0.674922254
TMURIC,Cn1c(=O)c2c(n(C)c1=O)n(C)c(=O)n2C,1.4887,168.707,249.9666927,0.674917919
FICTOC,C#CCn1c(=O)n(CC#C)c2c3c(ccc21)C(=O)c1ccccc1C3=O,1.4044,271.4,402.1253247,0.674913972
EXEWAF,O=C1NC(CO)CO1,1.5086,86.952,128.8352977,0.674908209
ERILIA,COC(=O)c1ccccc1NC(=O)c1cc(OC)c(C(=O)Nc2ccccc2C(=O)OC)cc1OC,1.4481,380.892,564.3738091,0.674893118
KOXBOO,Nc1[n-]o[n+](=O)c1-c1ccccc1,1.455,136.375,202.0725665,0.674881318
AZAZIM,O=C([O-])/C=C/c1ccc[nH+]c1,1.3836,120.727,178.8873771,0.674877132
GEJJAH,O=C(Nc1ccccc1)C(=O)Nc1ccccc1,1.3863,194.085,287.5952181,0.674854754
YEXLUJ,CCOC(=O)c1c2c(n3ccccc13)C(=O)c1ccccc1C2=O,1.4408,248.182,367.7621119,0.674843851
OCIGUC,COC(=O)c1cc2cc(C#N)oc2n1C,1.4368,159.15,235.8374367,0.674829248
VOKBAZ,C/C(=N\NC(=O)c1ccccc1)c1cnccn1,1.3846,194.322,287.9617976,0.67481868
NAHCIK,O=c1cnc2ccccc2n1-c1cnc2ccccc2n1,1.4304,214.723,318.1951317,0.674815478
MALDHZ,NNC(=O)CC(=O)NN,1.4782,100.116,148.3606299,0.674815145
APOBIT,N#[N+][N-]CCn1cc2c(nc1=O)Nc1c(OCCNC(=O)OCc3ccccc3)cccc1O2,1.4654,354.179,524.8561404,0.674811577
DICMIL,CCOCCN1C(=O)c2ccc3c4ccc5c6c(ccc(c7ccc(c2c37)C1=O)c64)C(=O)N(CCOCC)C5=O,1.4583,410.475,608.2821032,0.674810253
ZOZTOX,O=C(O)c1cc2cc3c4c(c2oc1=O)CCCN4CCC3,1.4786,216.067,320.1929117,0.674802571
SALOXM03,O/N=C/c1ccccc1O,1.4016,109.568,162.3725563,0.674793835
KIBFAC,Cc1cc(-c2ccccc2)n[n+](=O)[n-]1,1.3959,150.173,222.5489057,0.674786513
LOPSAM,O=C(N/N=C/c1ccc2cccc(O)c2n1)c1ccncc1,1.4218,230.207,341.1553384,0.674786451
YIRTEB,Cc1ccc(-c2c(C#N)c(=N)oc3c2ccc2ccccc23)cc1,1.3757,252.569,374.3328371,0.674717724
HABGAS,O=c1n(-c2ccccc2)c(=O)n2n1C1C=CC2C23CC12C1C=CC3n2c(=O)n(-c3ccccc3)c(=O)n21,1.4974,368.256,545.7939989,0.674716103
WEKKON,Nc1ncnc2c1nc(NCCO)n2C1OC(CO)C(O)C1O,1.5312,238.636,353.6950762,0.674694153
CIZSEL,O=C(O)/C=N/O,1.5117,65.97,97.77876105,0.674686397
WACDUB,COC(=O)N/N=C/c1c(O)ccc2ccccc12,1.4255,191.836,284.340376,0.674670276
HOPROL12,O=C([O-])C1CC(O)C[NH2+]1,1.4776,99.372,147.2897392,0.674670215
UCIRUU,COC1=CC(=O)C(N(C)c2ccccc2)=CC1=O,1.3971,194.935,288.9374386,0.674661618
DICMOR,COCCCN1C(=O)c2ccc3c4ccc5c6c(ccc(c7ccc(c2c37)C1=O)c64)C(=O)N(CCCOC)C5=O,1.4562,410.961,609.1593127,0.674636325
DINSUO10,CN1C(=O)NC(=O)C23OCCOC12NC(=O)N3C,1.5783,181.763,269.4340277,0.674610411
XILYUP,C#CCOC(=O)c1cc(=O)n(CC#C)c2ccccc12,1.3701,216.733,321.2770653,0.674598418
WOCNAG,O=C(c1cnc2ncccn12)C1CC1,1.4082,148.816,220.60504,0.674581142
YUYSAM,N#CNC(=O)Nc1ccccc1,1.3812,130.623,193.6391754,0.674569078
TUQDUF,COC(=O)c1cn(C)nn1,1.4437,109.444,162.245608,0.674557551
HBZIND01,O=C1C=Cc2c[nH]c3cccc1c23,1.4012,135.144,200.3490006,0.674542921
WOHFAA,CC(=O)N1CN(C(C)=O)C(=O)N(C(C)=O)C1=O,1.5046,179.466,266.0644868,0.674520685
GAPMUF,O=C(NCCNC(=O)c1ccccn1)c1ccccn1,1.4016,215.852,320.0252916,0.674484191
DIWVOV,O=C(O)c1ccccc1NC1OC(=O)c2ccccc21,1.4528,207.44,307.5548335,0.674481352