name,smiles,Density,Vint,Veff,pc
VEXHOY,CC1(C)OC(=C(C#N)C#N)C(C#N)=C1/C=C/c1ccccc1,1.252,242.556,380.8051075,0.636955743
SIJSUC,c1ccc2c3c(ccc2c1)OCC1CN=NC31,1.3347,177.591,278.813288,0.636953143
FONJUO,COc1ccc2c(c1)CN1C(=O)CCC1C2=O,1.3553,180.347,283.1456471,0.636940747
MOZPEZ,COC(=O)c1cc(C(=O)OC)c(C(=O)c2c3ccccc3cc3ccccc23)c2c1CCN2C,1.3365,358.628,563.0479225,0.636940455
TUBREN,Cc1ccc(Oc2ccc(/C=N/NC(N)=O)cc2)cc1,1.3094,217.385,341.2973409,0.63693728
FUSSUK,COc1cccc2c1[nH]c1c(OC)cc(C=O)cc12,1.3408,201.225,315.9320522,0.636924929
PUWLUQ,COc1cccc(C(=O)n2c(-c3cn(C)c4ccccc34)nc3ccccc32)c1,1.3223,304.868,478.6613591,0.636917926
VUWVUG,COc1nc(OC)c2c(n1)N(c1ccccc1)CC=CC2,1.3284,225.428,353.9364098,0.636916671
IVEGAS,O=C1C=Cc2ccccc2/C1=C/Nc1ccc(Oc2ccccc2)cc1,1.3006,275.781,432.9944006,0.636915858
FEHDAX,C=C1CC1C(N)=O,1.2355,83.083,130.4458273,0.636915735
VEFYUC,O=C(CNC(=O)c1ccccc1)NCc1ccccc1,1.2909,219.677,344.9082251,0.636914356
NURSAW,N#CC1C2C3CCC(C(O)C3O)C12,1.3362,141.761,222.5748693,0.636913774
GEFDOM01,Cc1[nH]nc2c1C1(C(=O)Nc3ccccc31)C(C#N)C(=O)N2,1.3849,223.835,351.4386386,0.636910617
QIRRIV,COC(=O)C1=C(C)NC2=C(C(=O)CCC2)C1c1cccc(OC)c1,1.3338,259.414,407.3027477,0.636907071
SAGTUQ,CCOC(=O)CNC(=O)C(Cc1ccc(O)cc1)NC(=O)OCc1ccccc1,1.3379,316.332,496.6824146,0.636889873
XCHPIN10,COC(=O)C1CC2(O)c3ccccc3NC2N1C(=O)OC,1.3952,221.427,347.6713685,0.636885922
AYUDOO,COc1ccc(NCc2ccccc2O)cc1,1.2885,188.055,295.2739843,0.636883064
CIWQUX,Oc1ccc2ccccc2c1/C=N/c1cc(-c2ccccc2)[nH]n1,1.3136,252.1,395.8355534,0.636880638
PUZXUF,O=C1C(=C\c2ccccc2)/C(=C\c2ccccc2)C(=O)N1c1ccccc1,1.2852,288.944,453.687922,0.636878317
WACPEY,NC1=C(C(=O)c2ccccc2)/C(=N/c2ccccc2C(=O)c2ccccc2)C=CC1=O,1.3097,327.956,514.9441638,0.636876817
VIQPUJ,CC1Cc2ccccc2-c2nc3ccccc3c(=O)n21,1.3261,209.039,328.2262907,0.636874638
YOCQIS,CCOC(=O)C1=C(N)OC2=C(C(=O)CCC2)C12C(=O)c1cccc3cccc2c13,1.3758,299.126,469.6781302,0.636874448
RBZICB,CC1=NN(C)C(=O)/C1=N\c1c(C)nn(C)c1O,1.3599,182.84,287.0935798,0.636865513
KUMMOU,COC(=O)C1(O)N(c2ccccc2)C(=O)N(C)C1(C)OC,1.3621,228.365,358.5774039,0.636863889
JACDOK,O=C(/C=C1\C=Cc2cccnc2N1Cc1ccccc1)c1ccccc1,1.2824,278.86,437.8653002,0.636862523
AQIKIV,N#Cc1cc(C(=O)Nc2ccccc2)c(N)n(-c2ccccc2)c1=O,1.3295,262.588,412.3230152,0.636850213
ZEBXAH,CCOc1c(NCCc2ccccn2)c(=O)c1=O,1.3165,197.693,310.4249103,0.636846443
WIGMUW,COc1cccc(-c2cc(-c3ccccc3)no2)c1,1.2974,204.673,321.38719,0.636842433
TOJQER,NC(=O)C(N)c1ccccc1,1.2833,123.677,194.2037771,0.636841373
AVITOR,Cn1nc2ccc(N)cc2c1-c1ccc(/C=C/C2=CC(=C(C#N)C#N)c3ccccc3O2)o1,1.3267,343.668,539.6458401,0.636839895
PERQAE,CCOC(=O)CC(C(=O)[O-])[n+]1cc[nH]c1,1.3652,164.284,257.9692069,0.636835698
ZERDEH,CN1C2=C(C(=O)c3cccnc32)C2CC1C1=C(CCCC1=O)O2,1.3736,237.217,372.4938724,0.636834637
DAHLEG,COc1ccc(/N=C/c2cccc(OC)c2O)cc1,1.3164,206.543,324.3306624,0.636828471
MFXCMA,Cc1c(C(=O)N(C)C)[n-]o[n+]1=O,1.3796,131.127,205.9071673,0.636825817
IQOMAD,O=C(c1ccccc1)N(/N=C/c1nc(-c2ccccc2)n(-c2ccccc2)n1)c1ccccc1,1.3048,359.182,564.0218868,0.636822805
XENNOV,COC(=O)C1(c2ccc(OC)c(OC)c2)C(=O)c2ccccc2N1Cc1ccccc1,1.3337,330.769,519.4061246,0.636821524
JEMWAC,O=C1Nc2ccccc2/C1=C1/NCCN=C1c1ccccc1,1.3194,231.732,363.8890276,0.636820521
FALJIM,COC(=O)C1(c2ccccc2)C(Nc2ccccc2)c2c(nc3ccccn3c2=O)N1Cc1ccccc1,1.3295,399.456,627.2689996,0.636817698
JAWNEB01,Cc1cc(C)n(C(C(=O)O)n2nc(C)cc2C)n1,1.3235,198.258,311.3262086,0.636817571
DUXXEZ,Cc1cn(CCCn2ccnc2)c(=O)[nH]c1=O,1.3457,183.973,288.8948864,0.636816395
MUXZAH,Cc1ccc2n1-c1ccccc1C(=O)NC2,1.3197,169.955,266.8825457,0.636815718
PAVQAG,CC(=O)n1nc(NC(=O)c2ccccc2)c2c1CN(C(=O)c1ccccc1)C2,1.3486,293.375,460.6950771,0.636809496
KIZLEM,CC1(C)N=C(c2nnn(-c3ccccc3)c2N)C(=N)O1,1.3478,211.938,332.8135501,0.636807005
MOPZIA,COc1cc(-c2cc(-c3ccccc3)c(C#N)c(N)c2C#N)cc(OC)c1OC,1.3042,312.284,490.3909449,0.636806212
YAPBUO,CC(=O)c1cc(C(=O)c2cc(C)ccc2O)cn(-c2ccc(C)cc2)c1=O,1.3129,290.874,456.7711298,0.636804695
XICCIW,O=Cc1ccccc1NC(=O)OCc1ccccc1,1.3174,204.76,321.5437191,0.636802985
FIXCIY10,CN(C)c1ccc(NC(=O)OCc2ccc3c(=C(C#N)C#N)c4ccccc4c(=C(C#N)C#N)c3c2)cc1,1.2973,404.44,635.1123282,0.636800739
SAYQOY,CCOC(=O)C(=O)Nc1cccc2cccc(NC(=O)C(=O)OCC)c12,1.3613,278.188,436.8531823,0.636799756
ZUMXIQ01,Cc1ccc(C(=O)c2c(C)[nH]n(-c3ccccc3)c2=O)cc1,1.3027,237.13,372.3776985,0.636799682
WEDDIU,c1ccc(CNc2ccccc2-c2nc3ccccc3o2)cc1,1.3017,243.815,382.8759873,0.63679888
FOVWOD,C/C(=N\OCCO/N=C(\C)c1ccc2ccccc2c1O)c1ccc2ccccc2c1O,1.3171,343.77,539.841388,0.636798155
AMFURZ,Cc1nonc1N,1.3722,76.326,119.8595252,0.636795447
DINJIT10,Cc1ccc(N)c(/C(=N/N2C(=O)C3C4C=CC(C4)C3C2=O)c2ccccc2)c1,1.3241,296.421,465.4889387,0.636794938
AHAZEP,CC(=O)/C=C/c1c(-c2ccccc2)[nH]c2ccccc12,1.266,218.103,342.5025068,0.63679242
VOBXOZ,Cn1c2ccc3cc2c(=O)c2cc(ccc21)OCCOCCOCCOCCOCCO3,1.3557,345.695,542.8698269,0.6367917
JOZSIC,O=C1c2ccccc2C(=O)N1OCC(ON1C(=O)c2ccccc2C1=O)c1ccccc1,1.3758,329.04,516.7206342,0.636785099
SOWWIK,CC(C)Cc1c2c(nc3nnnn13)-c1ccccc1C2=O,1.346,219.276,344.3487399,0.636784674
WOHDEF,CC1(C)N=C2C(c3ccccc3)=CC(=O)C(c3ccccc3)=C2O1,1.2935,257.615,404.5598124,0.636778523
EJELIQ,COC(=O)C1=C(C)OC(=O)C1(NC(=O)c1ccccn1)c1ccccc1,1.3588,274.013,430.3113728,0.636778429
XEGLAY,COC(=O)c1cc2ccccc2c(Cc2ccccc2)n1,1.2903,227.099,356.637471,0.636778293
ELOHIZ,O=C1Cc2ccccc2N1Cn1nnc2ccccc21,1.3464,207.419,325.7325498,0.636777013
EDOPEU,COc1ccc(C(=O)Cn2nc(-c3ccccc3)cc2N)cc1,1.3173,246.541,387.1734052,0.636771526
XAZTIC,CC(=O)Oc1cccc2ccc(C=O)nc12,1.3402,169.681,266.4719584,0.636768691
HOTXOG,O=c1nc2c3ccccc3cc(-c3ccccc3)n2c2ccccc12,1.3166,258.699,406.2713688,0.636764045
YAPBIB,COc1ccc2cc3c(cc2c1)CCN(Cc1ccccc1)C3=O,1.3006,257.841,404.9248854,0.636762544
TUXLUT,c1ccc2c(c1)/N=N/c1ccccc1OCCO2,1.3416,189.231,297.1774379,0.636760991
XINGAC,CN(Cn1nnc2ccccc21)N=O,1.3591,148.664,233.4696687,0.636759373
GEXTIP,N#Cc1cccc(Oc2ccccc2C(=O)c2ccccc2)c1C#N,1.287,266.273,418.1691148,0.636759126
FIXNOR,O=C(O)/C(=N\NC(=O)c1ccccc1)c1ccccc1,1.33,213.135,334.7230121,0.636750365
SELGOI,NC(=O)c1ccccc1Nc1ccccc1,1.2895,173.917,273.1329162,0.636748592
NEQBAO,C#CCn1c(=O)[nH]c2ccccc21,1.2989,140.07,219.9776107,0.63674662
OFOJOI03,COC(=O)c1ccccc1N(c1ccccc1C(=O)OC)c1ccccc1C(=O)OC,1.3474,328.919,516.5642832,0.636743597
XULDIU,CCc1ccc(-c2cc(=O)c3ccccc3[nH]2)cc1,1.2772,206.239,323.8967849,0.636742968
ACUYEE,CC(=O)N1c2ccccc2C(C(=O)c2ccccc2)C1c1ccccc1,1.2923,279.124,438.3654769,0.636738098
GIJTOL,CCOC(=O)C(C)c1nc2ccc3ccccc3c2c2ccc3ccccc3c12,1.3027,307.751,483.3257806,0.636736157
AZABOV,COc1ccc2c(c1)c1nc(-c3ccccc3)c(-c3ccccc3)n1c1nccn21,1.3281,310.615,487.8246145,0.636734988
BAXTID,CCOC(=O)C1(C#N)C(C)(C)C1(C#N)C#N,1.2705,180.667,283.7399144,0.636734526
MUGBUL,COC(=O)c1ccc(C2=CC(=N)OC2(C)C)cc1,1.308,198.138,311.1786575,0.636733899
PIMYIV,CCOC(=O)CN1CCC2CC(=O)NN2C1=O,1.3996,182.148,286.0681971,0.63672929
DANLEK,O=C(NN1C(=O)C2C3C=CC(C3)C2C1=O)c1cccc(O)c1,1.3887,226.968,356.4608265,0.636726347
XAVMAJ,COc1cc(OC)nc(Oc2cccc(Oc3nc(OC)cc(OC)n3)c2C(=O)O)n1,1.4189,320.514,503.3792071,0.63672475
FIMRAX,CC(=O)/C(C)=N/n1nnc2ccccc21,1.3272,160.996,252.8504495,0.6367242
LUQNOC,Cc1nn(-c2ccccc2)c2c1C1(C(=O)Nc3ccccc31)C1=C(CCCC1=O)O2,1.3612,308.489,484.4953499,0.636722313
BIVQUT,C/C(=C/C(=O)c1ccccc1)Nc1cccc(O)c1,1.2811,208.901,328.0890866,0.636720356
SOHYOD,CN1C(=O)C2C(C3N(C)C(=O)N(C)C(=O)C23C2Nc3ccccc3C23CC3)N(C)C1=O,1.3759,325.207,510.7568867,0.63671584
NUQCUY,COc1ccccc1C(C#N)CC#N,1.2438,158.181,248.4348827,0.636710104
QAHDOV,Cc1ccc2c(c1)C(=O)C(=O)N2Cc1ccccc1,1.301,204.062,320.4978787,0.636703122
WUSQIL,CCn1c2ccccc2c2cc3nc4c(cc3cc21)COc1ccccc1-4,1.3225,279.93,439.6564545,0.636701673
NOHHAV01,COC(=O)CN1CCc2cc3c(c(OC)c2C1C1OC(=O)c2c1ccc(OC)c2OC)OCO3,1.4017,355.391,558.176898,0.636699586
XUVFUS,Cc1ccc2c(c1)COC(=O)N2,1.341,128.566,201.9261471,0.636698129
JUCQIJ,COc1ccc(C(=O)/C=C(\O)c2ccc(N(C)C)cc2)c(O)c1,1.3158,251.614,395.1862108,0.636697317
ZIWQED01,C/C(=N/O)c1ccc[nH]1,1.3006,100.855,158.4039048,0.636695163
SUYKUS,CC1(C2(C)Nc3ccccc3C2=O)Nc2ccccc2C1=O,1.3234,233.382,366.5531418,0.636693493
NIKFET,N#Cc1cccc(Oc2ccccc2)c1C#N,1.2697,183.247,287.8142227,0.636685006
XAJFOH,O=Cc1ccc(N(c2ccccc2)c2ccc(-c3cc(-c4ccccn4)nc(-c4ccccn4)c3)cc2)cc1,1.2944,411.827,646.8373268,0.636677852
ENECIL,CC(=O)Nc1nc2c(ncn2COC(COC(C)=O)COC(C)=O)c(=O)[nH]1,1.405,286.799,450.4639863,0.636674648
WAPVEP,COc1ccc(C2C(=O)OC3(C(=O)N(C(C)=O)c4ccccc43)C23C(=O)N(C(C)=O)c2ccccc23)cc1,1.3782,391.347,614.673465,0.636674629
QAYJOQ,O=C1N(c2ccccc2)C(c2ccccc2)N2C(=O)N(c3ccccc3)C(c3ccccc3)N12,1.3144,358.888,563.692181,0.636673724
EJAHAZ,Cc1ccc(Nc2n[nH]nc2C(=O)n2nc(-c3ccccc3)cc2C)cc1,1.3285,285.029,447.6860217,0.636671654
DIYXUH,Cc1ccnc(-c2cc(/C=N/c3c(C)n(C)n(-c4ccccc4)c3=O)ccn2)c1,1.3001,311.602,489.4237042,0.636671247
INICIU,O=C1C(Cc2ccc3ccccc3c2)Oc2ccccc2N1Cc1ccccc1,1.2976,308.928,485.2254118,0.636669046
LAJNOZ,CCOC(=O)C1=C(c2ccccc2)NC(=O)C1(O)C1CCCCC1=O,1.3473,269.27,422.9359162,0.636668558
BAVXUU,C=CCOC(=O)N1C=CC(C2C(=O)N(C)c3ccccc32)C(C#N)=C1,1.3208,268.256,421.3445503,0.636666595
FEDGIE,CN1Cc2c(ccc3c2OCO3)C2(C)C(O)Cc3cc4c(cc3C12)OCO4,1.3987,277.512,435.8875813,0.63665957
CAHBUL,CC(=O)OCC(=O)N1c2ccccc2OCC1C,1.3466,195.572,307.1852363,0.636658201
LATJEV,COC(=O)C1NC(=O)C(C)N(Cc2ccccc2)C(=O)C1C(=O)OC,1.365,269.639,423.5225096,0.636658014
KERBOA,CCOC(=O)c1cc(C(=O)c2ccc(C)cc2)nn(-c2ccccc2)c1=O,1.3313,287.578,451.6994867,0.636657797
SAZLAH,O=C(OCC(CO)(CO)COC(=O)c1ccc[nH]1)c1ccc[nH]1,1.3785,247.045,388.0352826,0.636656023
AFAFUJ,CCOC(=O)/N=N/c1ccccc1C#N,1.3064,164.338,258.1270458,0.636655487
PURFAL,O=C1c2cccc3c(N4CCCCC4)ccc(c23)C(=O)N1Cc1cccnc1,1.3351,293.912,461.6537365,0.636650322
RIGWAG,CC(=O)N/N=C(\C)c1ccco1,1.3091,134.12,210.6660013,0.63664758
MIXFOO,COc1ccc2c(c1)C(C)N1C(=O)c3cccnc3C21c1ccccc1,1.3196,274.107,430.5489665,0.636645356
SUTLAV,CC(=O)C12CN(C)C3(C(=O)Nc4ccccc43)C1c1ccccc1OC2=O,1.3665,280.163,440.0640517,0.636641414
VAKQII,CC1(C)CCC(=O)c2nc3ccccc3nc2-c2ccccc2C(=O)O1,1.3345,274.207,430.7129049,0.636635209
NSMACM,CN(CC(N)=O)N=O,1.365,90.658,142.4026258,0.636631519
WATPAJ,COc1ccc(C2C3C(=O)N(C)C(=O)C3N3c4nncn4-c4ccc(C)cc4N23)cc1,1.3812,318.534,500.3437437,0.636630325
EXMZPE,CN1C(=O)C23CC=CCC2(CC2OC2C3)C1=O,1.3699,179.892,282.571344,0.636625064
SESBIC,CC(=O)NCc1ccc(OCC#CC#CCO)cc1,1.265,214.866,337.5089992,0.636623025
BODJUC,CC1=C(c2ccccc2)C2c3ccccc3N(c3ccccn3)C2O1,1.3037,264.469,415.4262953,0.636620751
FAHYOC,CCOC1=NCN=C(OCC)C1,1.2994,138.395,217.3905182,0.636619302
GURSAO,Cn1c2ccccc2c2cc3cc4c(cc3c(OCc3ccccc3)c21)OCO4,1.3372,301.32,473.3138357,0.636617773
RUXWIT,CN1C(=O)CC2(OC(c3ccccc3)=C(C#N)C23C(=O)N(Cc2ccccc2)c2ccccc23)C1=O,1.3403,374.776,588.7035844,0.636612397
UPEVIW,c1ccc2c(c1)Oc1ccc(-c3ccc4ccccc4n3)cc1C21c2ccccc2-c2ccccc21,1.3098,370.596,582.1384479,0.636611448
MAVCUI,O=C1Nc2ccccc2C1(c1c[nH]c2ccccc12)c1c[nH]c2ccccc12,1.3308,288.461,453.1301258,0.636596385
IJAJIP,Cc1ccc(C2=C/C(=N/NC(=O)c3ccccc3Nc3ccccc3)C(=O)O2)cc1,1.3276,316.233,496.7573595,0.636594494
ROCRUY,O=C1C2C3c4ccccc4C(c4ccccc43)C2C(=O)N1c1cccc2ccccc12,1.3299,318.864,500.8915751,0.636592859
AMPHOM02,Nc1ccccc1O,1.2879,89.512,140.6110875,0.636592758
EMAXAU,Cc1cc(C)c(-c2onc3c4ccccc4n4c5ccccc5nc4c23)c(C)c1,1.3185,302.386,475.0094501,0.63658944
EWIRUZ,O=C1NC(=O)c2c1c(-c1ccccc1)c1c3ccccc3c3ccccc3c1c2-c1ccccc1,1.3198,359.749,565.1193406,0.636589432
HABXIS,COC(=O)C1CN(C(=O)c2ccc(OC)cc2)N2CCc3ccccc3C12,1.3417,288.494,453.187675,0.636588362
PUWDOC,COc1ccc(Cc2cccc[n+]2[O-])cc1,1.294,175.719,276.0325659,0.636587931
WAZZIG,CCOC(=O)/C(C#N)=C/c1ccc(O)c(OC)c1,1.3135,198.856,312.3779602,0.636587805
RODVAK,CCOc1nc(-c2ccccc2)cc(/C=C\c2ccccc2)c1C#N,1.2544,274.843,431.7532374,0.636574265
NOQVUM,O=C(C1=C(c2ccccc2)NC(=O)N2N=C(c3ccccn3)CC12)c1ccccc1,1.3356,311.954,490.0522803,0.636572897
RENJIF,CCOC(=O)c1c2c3c(cccc3c3ccccc13)N(Cc1ccccc1)C2=O,1.3223,304.692,478.6472518,0.636568995
CEMHUZ,O=C/C(C(=O)c1ccccc1)=C(\c1ccccc1)c1cn(Cc2ccccc2)c2ccccc12,1.2783,364.824,573.1140443,0.636564404
XABVOP,O=C1CC2(CC=CC2)CC(=O)N1Cc1cc(=O)oc2ccc3ccccc3c12,1.3479,292.621,459.6943514,0.63655557
MIVJIN,COc1cccc2c1c(-c1c3ccccc3c(C)c3c4c(OC)cccc4n(C)c13)cn2C,1.3054,351.593,552.345312,0.63654564
FEPJUF,COCc1ccc(COC)c(C(C#N)c2cc(OC)c(OC)c(OC)c2)c1,1.2974,302.409,475.0811908,0.636541723
ROGKAA,O=C(N/N=C/C=C/c1ccccc1)c1ccccc1O,1.2969,216.889,340.731621,0.636539102
OFALAJ,CC1C(=O)OCC(=O)NC(C(C)c2ccccc2)C(O)(c2ccccc2)c2cccc1c2,1.3027,348.253,547.1095189,0.636532519
OYEBEB,Cn1c2c(c3ccccc31)CCC1(C)OC(=O)N=C21,1.3477,199.299,313.1020549,0.636530476
HAFNIM,COC(=O)C(C(=O)OC)C1(C)c2ccccc2N(C(=O)OC)C1O,1.3792,258.366,405.8984063,0.636528737
BANBID,CCOC(=O)c1c(-c2ccccc2)nc2c(c1C)CCCC2,1.2803,243.681,382.8306602,0.636524253
KOJWEN,CCOC(=O)C1c2occc2CC(CC(C)=O)C12C(=O)N(C(C)=O)c1ccccc12,1.3549,319.192,501.4677864,0.636515463
VAFVIJ,CN(C)c1ccc(COCc2cc(C#N)c3ccccc3c2C#N)cc1,1.2676,284.472,446.9220258,0.636513717
HURLUC,CC(=O)OC1COC(n2ccc(=O)[nH]c2=O)C(OC(C)=O)C12OCc1ccccc12,1.4131,311.258,489.004413,0.636513683
TOYZUE,CCOC(=O)CCC1NC(=O)OC1=O,1.4,151.802,238.4902982,0.636512265
BALSOW,CC(=O)COC(=O)C1=CCC2CC(=O)N12,1.3601,162.475,255.2603944,0.636506891
HAVWEG,O=C(OCCc1c2ccccc2cc2ccccc12)N1CCN(c2ccccc2)CC1,1.3006,333.359,523.7407121,0.636496251
AREZOM,CC(CO)(CO)/N=C/c1ccccc1O,1.3029,169.633,266.5132274,0.636489984
TPNITR01,[O-][N+](=C(c1ccccc1)c1ccccc1)c1ccccc1,1.2658,228.05,358.2993945,0.636478887
PONCUT,C#CCOc1c(/C=N/c2c(C)n(C)n(-c3ccccc3)c2=O)cccc1OC,1.2981,305.46,479.9228556,0.636477293
YORYUZ,CN(C)c1ccc(C2=Nc3nc4ccccc4n3C(c3ccccc3)C2O)cc1,1.3095,308.467,484.6483752,0.636475878
FADREL,COc1ccc(C(=O)O/C(=C\C#N)c2ccccc2)cc1,1.2979,227.273,357.0815128,0.636473723
SIXHUE,Cc1ccccc1/C(c1ccccc1)=c1/c2ccccc2n2nnc(CO)c12,1.2988,297.15,466.871543,0.636470576
JAGKOU,Cc1cc2c(c(=O)o1)C(c1ccccc1)C(C#N)=C(N)O2,1.3468,219.801,345.3436338,0.636470398
KOSLIN,CCC12CC3=Nc4ccccc4C(O)(CCN(CC4OC41)C2)C3=O,1.3529,254.807,400.3447028,0.636469018
JASLIB,CCn1nc2ccccn2/c1=N\N=C\c1ccccc1OC,1.312,237.759,373.5632476,0.636462504
SENFOH,O=C(Nc1ccccc1)OCc1ccc(COC(=O)Nc2ccccc2)cc1,1.3286,299.222,470.1354171,0.636459176
KIZYOK,Cc1cc(C(=O)N/N=C/c2ccc3ccc4cccc5ccc2c3c45)n[nH]1,1.3287,280.1,440.0926333,0.636456916
YESBUU,Cc1[nH]c2ccccc2c1/C=N/NC(=O)c1ccc(O)cc1,1.3206,234.586,368.58181,0.636455717
YECMEB,COc1cc(C#Cc2ccc3c(-c4ccccc4)cc(-c4ccccc4)cn23)cc(OC)c1OC,1.2937,375.131,589.4102392,0.636451448
VUXQIP,O=C(OCCN(CCOC(=O)c1ccccc1O)CCOC(=O)c1ccccc1O)c1ccccc1O,1.3647,394.318,619.5686571,0.636439554
FADTOX,O=C(C1=C2c3ccccc3C=CN2C(O)(c2ccccc2)C1=O)c1ccccc1,1.3208,303.363,476.6566266,0.636439279
KEZNEL,Cc1cc(C)c(C(=O)c2ccccc2)c(=O)[nH]1,1.2861,186.618,293.2224092,0.636438397
NIMLAW,COc1cc2c(cc1OC)C1C(O)CCC(=O)N1CC2,1.362,215.045,337.888705,0.636437374
DOBSES,CC(=O)C12C=CC(c3ccccc31)C(C#N)(N1CCOCC1)C2,1.3082,248.95,391.1619055,0.636437231
XAFPOL,COc1cc2c(c(OC)c1OC)C1(O)c3ccccc3C(=O)N1CC2,1.372,262.773,412.882195,0.636435776
ONUHOW,COc1ccc(N2CC=C3Cc4ccccc4N4C(=O)C(OC)C2C34)cc1,1.3434,284.916,447.6760075,0.636433481
ACAPRE,OCCNCCCNc1c2ccccc2nc2ccccc12,1.2875,242.292,380.7042707,0.636431001
YIQLUI,COc1cc(C/N=C/c2c(O)ccc3ccccc23)ccc1O,1.3113,247.527,388.9307348,0.636429518
YEPFUX,CC12C=CC(=O)CC1C(c1c[nH]c(=O)c3ccccc13)CO2,1.338,233.108,366.2762874,0.636426676
IRUZIF,CCN1C(=O)C2C=CC(OO)CC2C1=O,1.3709,162.728,255.6910429,0.636424327
VEMYIV,COc1ccc2c3c(=O)n(-c4ccccc4)c4c=3c(oc2c1)=CC(C)(C)C=4,1.3341,282.915,444.5400353,0.636421869
TIHSOT,O=C1c2ccccc2C(=O)N1CCN1CCOCCN(CCN2C(=O)c3ccccc3C2=O)CCOCC1,1.3545,405.908,637.7981292,0.636420807
QIVDEF,Oc1ccccc1/N=C/c1cccc(/C=N/c2ccccc2O)c1,1.2964,257.705,404.9296727,0.636419155
RAWQIR,NC(=O)NC1c2ccccc2-c2ccccc21,1.3176,179.744,282.4317666,0.636415663
MOFCOA,CCn1c2c(c3ccccc31)C(=O)CCC2,1.2868,175.028,275.0228268,0.636412628
OXIMAL,O=C1C(=O)N(CN2CCN(c3ccccn3)CC2)c2ccccc21,1.3451,253.103,397.7032382,0.636411715
BIXPON10,c1cc2nc(c1)OCCOc1cccc(n1)OCCO2,1.3864,208.937,328.3055033,0.636410288
GIBJUZ,COC(=O)C1=CN2CCc3cc(OC)c(OC)cc3C2C12C(=O)N(c1ccccc1)c1ccccc12,1.3534,376.518,591.6322122,0.636405511
SARJED,CCc1nc2ccccc2c(=O)n1N(C(C)=O)C(C)=O,1.3382,215.683,338.9095004,0.636402933
KUZHET,COc1ccc(Oc2cc(C#N)c(C#N)cc2Oc2ccc(OC)cc2)cc1,1.317,298.595,469.1932712,0.636400857
QECQAQ,CC1(C)OC(=O)C(=C(O)Nc2ccccc2)C(=O)O1,1.3913,199.83,314.0010106,0.636399226
KIYMUC,COc1cccc(OC(=O)Nc2ccccn2)c1,1.343,192.069,301.8073015,0.636396134
PANFAM,COC(=O)/C(=C/c1ccc2ccccc2n1)NC(C)=O,1.3249,215.444,338.5378477,0.63639561
CODGUA,Cc1ccc(-c2cn(Cc3ccc(C(=O)c4ccccc4)cc3)nn2)cc1,1.2817,291.183,457.5529062,0.63639198
AYEFAL,N#Cc1ccc(OC(c2ccccc2)c2ccccc2)cc1C#N,1.2646,259.151,407.2194244,0.636391548
FALWOE10,CN1C(=O)c2cc3ccccc3cc2C12OCCC2c1ccccc1,1.3139,264.734,415.9924695,0.636391328
YIZPAY,CC(=O)Oc1c(-c2nc3ccccc3c(=O)o2)n(C(C)=O)c2ccccc12,1.3801,277.264,435.6837222,0.636388247
DAFGIA,O=C1CC/N=C(\c2ccccc2)c2ccccc2NC(=O)CC/N=C(\c2ccccc2)c2ccccc2N1,1.2982,407.199,639.8608598,0.636386792
HXMPRO,CC1C[NH2+]C(C(=O)[O-])C1O,1.3636,112.431,176.6718298,0.636383288
NOYXAA,CC(C)=CC(=O)C[C@]1(C#N)C(N)=C(C=O)CC1(C#N)C#N,1.2767,233.514,366.9418413,0.636378777
JUHSEM,CCOC(=O)c1c2nc(c3ccc([nH]3)c(C(=O)OCC)c3ccc([nH]3)c(-c3ccc(C)cc3)c3ccc1[nH]3)C=C2,1.3364,420.849,661.3212202,0.636376071
GILPOI,O=C1c2ccccc2C(O)(C(c2ccccc2)c2ccccc2)N1Nc1ccccc1,1.2983,330.602,519.5122802,0.636369943
PAZGAB,CCN(CC)c1ccc2cc(C(=O)Nc3ccccc3)c(=O)oc2c1,1.3143,270.277,424.717614,0.63636871
AWODEX,Cc1ccc(N2C(c3ccccc3)=NOC23C(=O)Nc2ccccc23)cc1,1.3318,281.789,442.8084748,0.636367676
RUJQOD,COc1ccc(/C=N/NC(=O)c2ccccc2)cc1,1.293,207.677,326.3477489,0.63636719
LAFHEI,COc1ccc(C(=O)N2N=C(C)CC2c2ccccc2O)cc1,1.3173,248.79,390.9548102,0.636365108
LINDUH,COc1ccc(OC)c2cc3c(cc12)[nH]c1ccccc13,1.3224,221.442,347.9804363,0.636363361
TACQUJ,NC(=O)CCC([NH3+])C(=O)[O-],1.3625,113.29,178.0274625,0.636362494
MEYGOP,CC1COC(c2ccccc2NC(=O)c2ccc(-c3ccccn3)cc2N)=N1,1.3232,297.216,467.0545755,0.636362463
KEGQIX,NC1CCCCC1N1C(=O)c2cccc3cccc(c23)C1=O,1.3299,233.72,367.2784542,0.636356414
LAPQOJ,CCOC(=O)C1COC(=O)N1C(=O)C(C)c1ccccc1,1.3428,229.092,360.0077323,0.636352999
FAMTEU,C/C(=C/C(=O)c1ccccc1)Nc1ncccc1O,1.3008,206.427,324.3908667,0.636352688
VEFCOA,O=C1C=C2C(=Nc3c(ccc4ccccc34)C23c2ccccc2-c2ccccc23)c2ccccc21,1.3168,357.221,561.3688872,0.636339149
GIVDIA,COc1cccc2c(C)c(C(C)=O)c(CCC(C)=O)n12,1.2904,223.67,351.4960176,0.636337224
FETSIH,CCOC(=O)c1c2n(c3ccccc13)CC(O)C2[N-][N+]#N,1.3648,221.519,348.1159173,0.63633689
GOCREW,[NH3+]C1(CC(=O)[O-])CCCCC1,1.2971,127.992,201.1389475,0.636336232
ADAYOU,N#Cc1cccc(C(=O)NC(CO)Cc2ccc(OC(=O)c3cccc(C#N)c3)cc2)c1,1.3105,342.8,538.7130299,0.636331369
HEWNIH,CC(=O)NC(c1ccccc1)c1c(O)ccc2ccccc12,1.2894,238.584,374.9369609,0.63633097
QIHRUU,OC1C(O)C2CON(c3ccccc3)C2C1O,1.3801,181.538,285.28979,0.636328415
DXHPYC10,CC1CCC=C2N(C)C=C(C(=O)O)C(=O)N21,1.3601,172.552,271.1712333,0.636321183
YURHIC,COC(=O)C1Cc2ccc(OC)c(c2)OCCC(=O)N1,1.3695,215.354,338.4382497,0.636316965
XUJSON,Cc1c(-c2nn(-c3ccccc3)cc2/C=C/C(=O)c2ccccc2)nnn1-c1ccccc1,1.3003,350.387,550.6487409,0.636316719
EXOMUC,CCOC(=O)Nc1cccc2c(NC(=O)OCC)cccc12,1.3358,238.992,375.5888057,0.636312894
RAVRUB,COc1ccc(/C=N/NC(=O)c2ccncc2)cc1OC,1.3269,227.045,356.8135455,0.636312727
QUYZAM,OCCN(CCO)c1ccc(/N=C/c2ccc(O)cc2)cc1,1.3028,243.439,382.5796439,0.636309338
JOXTUL,Nc1ncnc2c1ncn2C1CC(O)C(O)C1,1.3982,177.675,279.2294086,0.636304754
KEQHIX,CN1C=CCC2=C1CCCCC2=O,1.2705,147.303,231.4976572,0.636304495
DOLJOF,C#CCN1C(=O)/C(=C\C=C\C(C)=O)c2ccccc21,1.2605,210.485,330.7955099,0.636299447
PUFFOL01,CC1=C([O-])C(C)=[N+]([O-])[N+]1=O,1.3908,107.911,169.5916311,0.636299087
EZEQEG,C=CCN1C(=O)C2(c3ccccc31)N(C)CC(C#N)(C#N)C21C(=O)c2cccc3cccc1c23,1.3208,355.324,558.4265703,0.636294938
TEBBIN,O=C(CCCCCCCCC(=O)n1nnc2ccccc21)n1nnc2ccccc21,1.3223,322.986,507.6064437,0.636292159
MONPHA,COc1cccc2cccc(C#N)c12,1.2704,152.262,239.297393,0.636287751
KIYYAU,COc1cccc(OC(=O)Nc2ccncc2)c1,1.3412,192.292,302.2123516,0.636281075
XIHXUI,CC1(C)Nc2c(ccc3c2C(=O)c2ccccc2C3=O)C2c3ccccc3OCC21,1.3439,310.677,488.2726762,0.636277668
XAFBIS,O=C(c1ccncc1)c1cc(-n2c3ccccc3c3ccccc32)cc(-n2c3ccccc3c3ccccc32)c1,1.3122,413.223,649.438757,0.636277086
EZOCAX,C[N+]1(C)CCN(C(=O)c2ccc(C(=C=[N-])C#N)cc2)CC1,1.2753,233.763,367.3920414,0.636276712