name,smiles,Density,Vint,Veff,pc
DOJBEM,COc1ccc(/N=N/c2ccc(O)c(C(O)Cc3ccccn3)c2)cc1,1.3476,280.389,430.2361757,0.651709493
QOKPEO,CC(=O)c1c(C)nn2c(N)c(C#N)c(-c3ccccc3)cc12,1.3368,234.868,360.3889089,0.65170707
BAGROR,N#CCCn1c(=O)oc2cc(C(=O)c3ccccc3)ccc21,1.3606,232.323,356.4868485,0.651701461
KEQXIO,Nc1ccnn1CCO,1.3612,101.03,155.0249908,0.651701377
CACFUI,CC(=N\O)/C(=N/O)Nc1c(C)cccc1C,1.3263,180.423,276.8498365,0.651699861
UXOTAF,Cc1nc2c(c3c1c1ccccc1c1ccc4ccccc4c13)-c1c(ccc3ccccc13)OC2,1.348,358.993,550.8588569,0.651696883
IQEQUT,C/C(N)=C1/C(=O)Nc2ccccc21,1.3398,140.609,215.7606412,0.651689758
ROWWEI,O=C(Nc1cccnc1)Nc1cccc(C(=O)O)c1,1.3958,199.32,305.8512082,0.651689431
RENHOK,CN(C)c1ccc(/C=N/C(C#N)=C(\N)C#N)c(O)c1,1.3189,209.324,321.2063113,0.651680844
IBADIC,COc1cccc2c1OC(=O)/C2=N\Nc1ccccc1,1.3856,209.376,321.2915748,0.651669749
COBVAR,OCCc1ccc(OCC2CNC3(O2)C2OCC(O)C2OC3C2(O)COC3C(O)COC32)cc1,1.4591,356.875,547.6472336,0.651651242
VOKWIB,Cn1c(C2CO2)cc(=O)n(C)c1=O,1.4051,140.219,215.1761565,0.651647479
BUFSOK,COC(=O)/C=C(/C(=O)OC)c1c(C(=O)OC)nn(C)c1O,1.4291,225.707,346.3661154,0.651642843
BEJNEM,Cn1c(N)c(C2c3ccccc3Oc3c2c(=O)n(C)c(=O)n3C)c(=O)n(C)c1=O,1.4421,298.002,457.3111366,0.651639499
WOLSUO,COc1c2occc2c(OC)c2/c(=N/O)cc(C)oc12,1.4307,208.05,319.2820339,0.651618249
AQELEQ,Cc1ccc(Nc2ccc3ccc(=O)n(C)c3c2N=O)cc1,1.3573,233.674,358.6157358,0.651599962
QIMRAI,COc1ccc(NCN2C(=O)c3ccccc3C2=O)cn1,1.3901,220.36,338.1833717,0.651599157
TINVOC,O=C(O)c1cnn(-c2ccccc2)n1,1.4029,145.815,223.7812989,0.651596003
CREATI02,CN1CC(=O)N=C1N,1.3922,87.871,134.8553577,0.65159443
VUJLAO,Cc1cc(-c2cncnc2-c2ccccc2)on1,1.3405,191.376,293.7053384,0.651591834
GITWUD01,c1ccc(-c2cc3c(oc4ccccc43)c(-c3ccccc3)n2)cc1,1.3322,260.814,400.2733626,0.651589699
ZOKLOD,O=C1Nc2cc3ccccc3c3cccc1c23,1.3613,174.126,267.2335328,0.65158739
PIDWEH,CCc1nc2c(ccc3c(C)cc(=O)oc32)o1,1.3918,178.088,273.3152084,0.65158467
QINKUW,COC(=O)c1ccc(NC(=O)c2ccccn2)c(C)c1,1.352,216.162,331.752067,0.65157695
GEDXIX,CN(N=O)c1nnnn1C,1.4426,106.55,163.5279002,0.651570771
IBILIO,O=C(CNC(=O)c1ccccc1)c1ccccc1,1.3137,196.923,302.2307532,0.651565064
NAGLIQ,Nc1ccn(CC2CC(O)C(CO)O2)c(=O)n1,1.4334,181.996,279.3226236,0.651561974
UNUFEP,Oc1ccccc1/C=N/c1ccc(Oc2ccc(/N=C/c3ccccc3O)cc2)cc1,1.3393,329.724,506.0625401,0.651547929
AMIXPO,CC(=O)n1oc(=O)c2c(C)cc(C)nc21,1.3932,160.033,245.6204548,0.651545899
WUKPAT,O=C1c2ccccc2/C(=C/c2ccccc2)N1O,1.3443,190.811,292.8612303,0.651540663
OQOFEI,N#CC(C#N)=C1C=C(/C=C/c2ccc(O)cc2)OC(c2ccccc2)=C1,1.3114,278.946,428.1363727,0.651535393
HOFFEO,O=C1c2ccc3c4c(ccc(c24)C(=O)N1C1CCCCC1)C(=O)N(C1CCCCC1)C3=O,1.3917,334.439,513.3091045,0.651535297
SEGZUC,COC(=O)C1=CCC23C(=O)C4CC5N(CC4C)C(=O)C(C(=O)OC)(CCC(=O)C12)C53C,1.416,327.927,503.3151383,0.651534148
ATOSAF,COc1ccc(C(=O)N/N=C/c2ccc(O)cc2O)cc1,1.3867,223.213,342.6047087,0.651517607
KERNUS,N#Cc1ccc(Oc2ccc3ccccc3c2C=O)cc1C#N,1.3299,242.491,372.1949488,0.651516096
IROQIP,COc1cc(/N=N/c2ccccc2)cc(C=O)c1O,1.3628,203.301,312.0446184,0.651512598
SAZVUK,COc1ccc(C(=O)NCCCCNC(=O)c2ccc(OC)cc2)cc1,1.3362,288.388,442.644733,0.651511197
ENUNUX,O=C(N/N=C(C(=N/NC(=O)c1ccccn1)/c1ccccc1)\c1ccccc1)c1ccccn1,1.3531,358.338,550.0128767,0.651508383
SABDUW,Cc1cc2n(c(=O)c1C#N)CCC21OCCO1,1.399,179.479,275.4824919,0.651507828
BOMTAY,C=Cn1ccc(N)nc1=O,1.3649,108.64,166.7521643,0.651505787
AWEKIX,CC(Cn1nnc2ccccc2c1=O)n1nnc2ccccc2c1=O,1.4022,257.788,395.6896719,0.651490343
NUVZAF,O=C1NC2(CCC2)C(=O)NC12CCC2,1.3787,152.311,233.7938922,0.651475531
WAXCIJ,Cc1c(O)c(-n2nnc3ccccc32)nc2ccccc12,1.3784,216.697,332.6273251,0.651470831
BOGXOK,CC(=O)N1C=CN(C(C)=O)c2ccccc21,1.3479,173.434,266.2206772,0.651467053
HUPVOG,COc1ccc(C(=O)/C=C/c2c[nH]c3ccccc23)cc1OC,1.3385,248.224,381.0271742,0.651460097
GISLUR,CC(C)(C)c1ccc(O)c(/N=N/c2c(O)ccc3ccccc23)c1,1.3213,262.121,402.36525,0.651450392
XATHIK,CN1C(=O)c2cccc3c(/C=C/c4c5ccccc5cc5ccccc45)ccc1c23,1.3245,314.571,482.879993,0.651447574
CAKPOT,C[N+]1(C)[N-]C=C(C#N)C1=O,1.3238,112.002,171.9293163,0.65144213
ONUVOL,COC(=O)c1cn(-c2ccc(C)cc2)nn1,1.3689,171.552,263.3439705,0.651436977
ALUGAP01,Oc1ccccc1/C=C\c1ccc2cccc(O)c2n1,1.3395,212.473,326.1627028,0.651432546
AZATED,O=C1c2cccc3c2[C@](c2ccccc2)(CC3=C(c2ccccc2)c2ccccc2)C(=O)N1Cc1ccccc1,1.3147,425.568,653.2815546,0.65143122
TUHXEB,COC(=O)c1cc(-c2ccccc2)c2c(n1)CCCC2,1.3205,218.831,335.9252687,0.651427625
ETERIG,COc1ccccc1-n1cc(Cn2c(=O)oc3cccnc32)nn1,1.4202,246.104,377.7939124,0.651423943
WAKKAX,CCOc1cccc(/C=N/NC(=O)CC#N)c1O,1.3538,197.441,303.0928533,0.651420836
NUKRIW,O=C(N/N=C(\CCn1ccnc1)c1ccccc1)Nc1ccccc1,1.3306,270.85,415.7851866,0.651418109
RABTUL01,[NH3+]CCC(O)C(=O)[O-],1.3861,92.915,142.636259,0.651412205
UWAPAM,CCOC(=O)C1=NOC(=O)/C1=C\c1ccc(OC)cc1,1.3859,214.706,329.603006,0.651407894
KORKAF,COC(=O)N1C=CC=CC(C(=O)c2cc(OC)c(OC)c(OC)c2)=C1,1.3779,270.937,415.9288241,0.651402318
MOJBOF,CC1(C)OC(=O)C(=NNc2ccccc2O)C(=O)O1,1.4375,198.716,305.0590027,0.651401854
TIRNUG,COc1cc(/C=C/C(=O)N2CCC=CC2=O)cc(OC)c1O,1.381,237.422,364.4790609,0.651400932
REXPOC,Oc1ccccc1-c1cc(-c2ccccn2)nc(-c2ccccn2)c1,1.3326,263.911,405.1454172,0.651398211
FAVBIO,CC(=O)N1C(=O)C2(OC34OC5N=C(c6ccccc6)C(O5)OC23c2ccccc2N4C(C)=O)c2ccccc21,1.4407,392.784,602.986659,0.651397496
GOBMIV,O=C(N/N=C/c1ccco1)c1ccc(O)cc1,1.3768,180.758,277.4933305,0.651395836
ETISAD,O=c1c2c3ccccc3oc2c2ccccc2n1-c1ccccc1,1.3649,246.547,378.4920071,0.651392884
PADTIX,Nc1ccc(C(=O)Nc2ccccc2)cc1,1.3131,174.718,268.2239704,0.651388464
SENKON,O=C1C=C(Nc2ccccc2)C(=O)N1c1ccccc1,1.3544,210.916,323.7947805,0.651387893
WOTXEL,Cc1cc(C)nc(N2C(=O)c3cccc4cccc(c34)C2=O)n1,1.378,237.925,365.2606311,0.651384189
OWAZUJ,O=C1Nc2ccccc2C1(O)Cc1ccccc1,1.339,193.148,296.5201944,0.651382279
PADKIS,CN(C)C(=O)CN(C)c1ccc2c3c(cccc13)C(=O)N(C)C2=O,1.3691,256.884,394.3699295,0.651378264
CIXCIX,CC(C)c1ccc(/N=N/c2ccc(O)c(C=O)c2)cc1,1.312,221.052,339.3613017,0.651376568
TECQOJ,O=C1/C(=C2/C(=O)N(Cc3ccccc3)c3ccccc32)c2ccccc2N1Cc1ccccc1,1.3348,358.317,550.0931925,0.651375085
PUPKEQ,N#CC1=Cc2ccccc2C(C#N)(c2ccc(O)cc2)c2ccccc21,1.3166,274.493,421.4067173,0.6513731
FUPPEL,N#[N+][N-]C1c2ccccc2-c2ccccc2C1O,1.3538,189.431,290.8199187,0.651368726
KUFTEM01,O=C(N/N=C/c1ccco1)c1ccco1,1.3982,157.857,242.3481827,0.651364488
HEYXIV,Cc1cn2c(=O)c3ccccc3nc2c2c1ccn2C,1.3638,208.674,320.3648589,0.651363576
UPUZAH,CC1(C)CC(=O)c2cc3c(O)nn(-c4ccccc4)c3nc2C1,1.3737,241.834,371.277227,0.651356944
PIWSUL,Cn1ncc2c(=O)oc(-c3ccccc3)nc21,1.3979,175.697,269.7414498,0.651353361
JOVWEW,CC(NC(=O)C(Cc1ccccc1)NC(=O)C[NH3+])C(=O)NC(CC(=O)[O-])C(=O)O,1.4,315.346,484.1414052,0.651351024
FAFSUB,NC(=O)C1=C(c2ccccc2)C2(O)CCC(=O)C2C1,1.3608,204.356,313.7484451,0.651337093
BASHAG,O=C1CCC23C=CC(O2)C2(O)CCCc4cccc(c42)N13,1.4088,217.366,333.724072,0.651334495
YOVXIT,COC(=O)C1C(C(=O)OC)C(c2cn3cccnc3n2)C1c1cn2cccnc2n1,1.4101,311.525,478.2883096,0.651333084
XIMHIL,CC(=O)C1=C(C)NC(=O)C1,1.332,112.921,173.3697923,0.651330307
TUSMUQ,CCOc1ccc(-c2nnc(-c3ccccn3)o2)cc1,1.3643,211.75,325.109983,0.65131805
PAGNIX,CCOC(=O)c1nc2ccccc2[nH]c1=O,1.3967,168.868,259.2722972,0.651315246
WEKKUT,Nc1ncnc2c1nc(N1CCCC1)n2C1OC(CO)C(O)C1O,1.464,248.344,381.2966761,0.651314358
BUVYIC,Cc1cc(-c2ccccc2)c(=O)n(CC#N)n1,1.3193,184.53,283.3205533,0.651311731
XEZDIP,COc1ccccc1-c1c2c(c(-c3ccccc3OC)c3ccccc13)C(=O)NC2=O,1.3633,324.581,498.3522454,0.651308393
WOYFAU02,Cc1ccc(O)c(/C=N/c2ccc(/C(C#N)=C/c3ccccc3)cc2)c1,1.2851,284.585,436.9453436,0.651305716
GELBUW,CCOc1ccc(NC(=O)c2c(O)c3cccc4c3n(c2=O)C(C)C4)cc1,1.3884,283.66,435.5335027,0.65129318
HEYQEI,N#CC1(C#N)CC(C=O)=C(N)C1(C#N)C1CCCC1=O,1.3419,216.073,331.768582,0.651276256
TUHXID02,c1ccc(-c2nnc(-c3ccccc3-c3ccccc3-c3nnc(-c4ccccc4)o3)o2)cc1,1.3568,352.43,541.1428551,0.651269802
WEJFOG,O=C1CC2OCCC3=CN4CCC56c7ccccc7N1C5C2C3CC46,1.4114,256.058,393.1696141,0.651265995
KOLFID,COc1cccc(C2C(C#N)=C(N)Oc3ccc4ccccc4c32)c1,1.3448,263.876,405.1740242,0.651265837
TOPZEF,Cc1ccc(-c2nc3c(N)n4nc(-c5ccccc5)cc4nc3o2)cc1,1.3786,267.609,410.9071466,0.651263922
EFABOD,N#CC(OC(=O)c1ccccc1)C(C#N)OC(=O)c1ccccc1,1.3525,255.939,392.9939824,0.651254247
JOLGEZ,c1ccc(-c2cc(-c3cn(-c4ccccc4)nn3)no2)cc1,1.3621,228.744,351.237578,0.651251501
BEDRIO,O=c1c2ccccc2oc2cc(N(c3ccccc3)c3ccccc3)ccc12,1.337,293.72,451.014897,0.651242347
HESTOP,Cc1c(/N=C/c2ccc(O)c(O)c2)c(=O)n(-c2ccccc2)n1C,1.363,256.379,393.6791504,0.651238451
FACCET,COCc1cc(C)n(C)c(=O)c1C#N,1.3187,157.529,241.893115,0.651233914
ZIFROV,O=C1c2cccc3cccc(c23)C(=O)N1c1ccccc1,1.3647,216.396,332.2891125,0.651228078
WUFTID,O=C1C=C(NC2CC2)C(=O)C=C1NC1CC1,1.3416,175.807,269.9657419,0.651219665
YAPFAW,O=C1C2C3C=CC(C4OC34)C2C(=O)N1c1ccccc1,1.4082,205.106,314.961579,0.651209588
BARYIC,O=C(NC1=NN(c2ccccc2)CC1)c1ccccc1,1.3292,215.695,331.2223766,0.651209022
EBUCEM,C/C(=N\NC(=O)c1ccccc1)c1ccc(O)cc1,1.3252,207.356,318.4180797,0.651206741
OVAKOM,Cc1c(/N=C/c2ccc(O)c3ncccc23)c(=O)n(-c2ccccc2)n1C,1.3511,286.65,440.1837212,0.651205363
RUSZOV,O=C1c2ccccc2OC2c3ccccc3C=NN12,1.3982,193.411,297.0056231,0.651203159
RENJUR,O=C1C=CC2(C=C1)CC(=O)C(O)=C2c1c[nH]c2ccccc12,1.369,229.933,353.0922539,0.651198086
PODZIR,c1ccc(-c2cnc(-c3ccccc3-c3nnc(-c4ccco4)o3)o2)cc1,1.3859,277.071,425.4794033,0.651197209
APACEB01,Oc1ccc2ccccc2c1/C=N/N=C/c1ccc2ccc3cccc4ccc1c2c34,1.3405,321.177,493.2148161,0.6511909
BEPPAO,Cc1ccc(N2CC3CC34C2=CC(=O)c2ccccc24)cc1,1.3213,234.989,360.8641203,0.651184163
GOHYAG,COC(=O)C1c2ccccc2C(=O)NC1c1ccc(OC)cc1OC,1.3735,268.567,412.4312861,0.651179988
FOKPON,CC(=O)/C=C1/OC(=O)OC12C(=O)N(C)c1ccccc12,1.4288,206.661,317.3639541,0.651179812
GISFIA,C[N+]1=C2C(C(=O)[O-])CCN2CCC1,1.3652,144.241,221.5092582,0.651173685
ABADIS,O=C(O)c1ccc(Cn2cnc3ccccc32)cc1,1.357,200.877,308.4896469,0.651162858
EFAZAO,Cc1cc(C)n(C(=O)c2cc(C#N)n3c(C)cccc23)n1,1.3357,225.149,345.7667841,0.651158557
LESVIQ,CN(C)c1ccc(/N=N/c2ccc(C(=O)On3nnc4ccccc43)cc2)cc1,1.365,305.894,469.7723333,0.651153715
GIJVAY,CCOC(=O)c1ccc2c(c1)cc1cc[nH]c(=O)n12,1.3929,198.796,305.3014618,0.651146571
BIHSAN,O=C1C=CC(=O)N1c1ccc(N(c2ccccc2)c2ccc(N3C(=O)C=CC3=O)cc2)cc1,1.3746,342.276,525.6535989,0.651143644
ZOYLII02,O=C1Cc2ccccc2N1,1.3445,107.005,164.3342653,0.651142352
DAZNOI,CN(C)c1ccc(/C=N/NC(=O)c2ccccc2O)cc1,1.332,229.84,352.9798248,0.651142031
KACLUV,O=C1C2C3CC4C2c2cc5ccccc5nc2C2C1C3C42,1.3909,212.319,326.0733148,0.65113884
LITDID,NC1=CC(=C2C=C(c3ccccc3)OC(c3ccccc3)=C2)C=CC1=O,1.3246,276.83,425.1491148,0.651136249
TAXMAI,CCn1c2ccccc2c2cc3c(cc21)-c1ccccc1C3=O,1.3312,241.333,370.6353468,0.651133256
MEJNOH,NNC(=O)N/N=C/c1ccncc1,1.3809,140.221,215.3533397,0.65112062
LIXQEO,O=C(O)C1CCCN2C(=O)CCC(N3C(=O)c4ccccc4C3=O)C(=O)N12,1.4457,277.556,426.2766464,0.651117068
LEWTOW10,OCC1NC(CO)C(O)C1O,1.4322,123.121,189.092341,0.651115742
UPIQUH,CCOC(=O)C1=C(C)Nc2nn3c(=O)cc(C)nc3n2C1c1ccccc1,1.3818,285.722,438.8233318,0.651109409
ZEVZUY,CCOc1nc(/C=C/c2ccc(-n3cncn3)cc2)nc2ccccc12,1.3472,275.399,422.9689585,0.651109247
FOZHEK,COC(=O)c1cccc(-n2nc(-c3ccccc3O)nc2-c2ccccc2O)c1,1.3808,303.132,465.5667997,0.651103129
UQEQUF,O=C(NC1CCC(NC(=O)c2cccnc2)CC1)c1cccnc1,1.3514,259.348,398.3260428,0.651094762
UBOKIH,CCn1c2ccc(C)cc2c2c3c(ccc21)oc(=O)c1ccccc13,1.3496,262.069,402.5083858,0.651089541
ZAMLUU,Oc1cccc(/C=N/c2ccccc2)c1O,1.3273,173.571,266.5855133,0.651089393
VOVGEV,O=C(c1ccccc1)c1ccc2c(c1)nc1c3cccc4cccc(c(=O)n21)c43,1.3658,296.148,454.8540337,0.651083596
ISANEY,CC(=O)Nc1cc[nH]n1,1.3563,99.691,153.1171784,0.651076522
KAFGUX,O=C1c2ccccc2C2C(O)CCN12,1.3739,148.793,228.5352295,0.651072486
YEJCUN,CC(=O)OC1C(=O)N(c2ccccc2)C(=O)C1OC(C)=O,1.4096,223.255,342.9043426,0.651070787
KUHMEH,CCOc1cccc2c1oc(=O)c1nc3c(cc12)COc1ccc(OC)cc1-3,1.4133,286.955,440.7477415,0.651064028
FAPXAX,O=C(O)CC1(Cc2ccncc2)C(=O)N(Cc2ccccc2)c2ccccc21,1.3456,299.009,459.2657253,0.651058817
YAXKUF,COc1ccc(O)c(/C=N/c2ccc(Cc3ccc(/N=C/c4cc(OC)ccc4O)cc3)cc2)c1,1.3357,377.344,579.5866443,0.6510571
OQODEF,O=C(O)/C=C\C(=O)NCCN1C(=O)C=CC1=O,1.4221,180.981,277.9837761,0.651048786
WATZAS,CC1(C)C(=O)c2ccc(C#N)cc2C(n2ccccc2=O)C1O,1.35,246.748,379.005617,0.651040483
YABSOJ,COC(=O)C1Cc2c([nH]c3ccccc23)CC(=O)N1,1.3903,200.701,308.2799357,0.65103491
LENREB,COc1ccc(-c2cn3ccnc3[nH]2)c(OC)c1,1.3797,190.488,292.5948756,0.651029857
QEVNUA,CC(=O)NC1OC(C(O)CO)C(O)C1O,1.4598,163.735,251.5015411,0.651029808
XEVMAP,CCCCn1cnc2nc3ncccc3cc2c1=O,1.3589,202.167,310.5352075,0.65102763
VIDHAR10,O=C1NC(=O)N2CCC3CC1C32,1.4312,125.447,192.6934476,0.651018504
HELZAC01,COc1ccc(OC)c(/C=N/NC(=O)c2ccccn2)c1,1.3552,227.44,349.3623771,0.651014577
UKIQEN,COc1ccc2c(c1)cc(-c1c(C)cccc1OC)n2-c1ncccn1,1.3427,277.894,426.8655063,0.651010672
XIFNIK02,Cc1ccc(C(=O)Nc2ccccn2)cc1,1.3091,175.15,269.0435379,0.651009875
FIYZIW,Cc1cn2c(C=O)c(-c3ccccc3)c(C=O)c2cc1-c1ccccc1,1.3093,280.009,430.1172515,0.651006206
RAMZEL,COc1ccc(-c2c(N)oc3cccc(OC(C)=O)c23)cc1,1.3793,232.857,357.6919012,0.650998804
ZELNOT,Cc1ccn2oc(=O)c(-c3ccccc3)c2n1,1.373,178.002,273.4296156,0.650997514
KOMYEQ,CN1C(=O)CCC1=O,1.372,89.074,136.8272411,0.650996097
OWUPUT,O=C(NCc1cnccn1)c1nccnc1C(=O)NCc1cnccn1,1.3997,270.414,415.3860594,0.650994404
VAXCOO,COc1ccc(CN2C(=O)C3(CC3C#N)c3ccccc32)cc1,1.3301,247.175,379.6884654,0.65099423
BALSUC,CC(=O)COC(=O)C1C=CC2CC(=O)N21,1.3822,163.515,251.1790351,0.650989841
ROFZUJ,Cc1ccc2oc(C(=O)c3ccccc3)nc2c1,1.344,190.691,292.926601,0.650985603
SIDXUY,CCOC(=O)c1cc(C#N)c(=O)[nH]c1C,1.3649,163.209,250.7131785,0.650978943
DISYEL,CCN(CC)c1ccc2cc(C(=O)Nc3ccc(C#N)cc3)c(=O)oc2c1,1.3453,290.196,445.7841897,0.650978672
VOVCOB,COc1cccc(C(=O)c2cnc3c4ncn(Cc5ccccc5)c4ncn23)c1,1.3798,300.172,461.1098247,0.650977238
TORQIC,O=C1CCc2ncccc21,1.3293,108.201,166.2133601,0.650976552
URASIQ01,CCN(CC)c1ccc2cc(C(=O)NN)c(=O)oc2c1,1.3668,217.598,334.2668144,0.650970993
ROHBUL,O=C1NC2CC(N1)NC(=O)N2,1.5206,110.947,170.4334362,0.650969683
XEHJID01,CC(=O)CC(=O)Nc1ccccc1C,1.3016,158.707,243.8012756,0.650968702
TALVUA,CCOC(=O)c1ccc2c(c1)nc(-c1ccc(OC)cc1)n2C,1.3439,249.461,383.2165871,0.650966081
GAHHOM,Nc1ccn(C2CCC(CO)O2)c(=O)n1,1.4233,160.325,246.290666,0.65095849
CAYPUN,O=C1CC(NCc2ccncc2)C(=O)N1,1.3795,160.7,246.8752166,0.650936138
QODPIK,COc1ccc2oc(=O)cc(-c3oc4ccccc4c3NC(=O)c3ccccc3)c2c1,1.3898,319.748,491.2148388,0.650933104
OBICOR,CN1C(=O)N(C)C(=O)C2(Cc3c(cnn(C)c3=O)N3CCCC32)C1=O,1.4231,262.157,402.7444558,0.650926403
BIZFIA,COC(=O)c1ccc(N)c(C)c1,1.3215,135.027,207.4386317,0.650925042
VUSLOK,CCn1c2nc(=O)n(C)c(=O)c-2cc2c3ccc(c21)CCc1ccc(cc1)CC3,1.3603,306.072,470.2111977,0.650924524
JIRCOD,O=Cc1c(Nc2ccc3ccccc3c2)c2ccccc2oc1=O,1.3684,248.894,382.3718909,0.650921278
OCODUF,NN1C(=O)C2C3C=CC(C3)C2N2C(=O)CC3CCCC312,1.4059,210.006,322.6325593,0.650913846
CIVYIP01,CC(=O)/C(=N/Nc1ccccc1)C(=O)Nc1ccccc1,1.3353,227.559,349.6007925,0.650910996
YESJUC,O=C1c2ccccc2C(=O)N1CCN1C(=O)c2ccccc2C1=O,1.3998,247.16,379.7145029,0.650910087
EVEZOX,N#C/C(=N/O)NC(=O)/C=C/c1ccccc1,1.3345,174.199,267.6241084,0.650909221
ROLZUO,OCCCn1ccnc1-c1nccn1CCCO,1.3485,200.498,308.0366523,0.650890076
HAMXEA,CC1C(=O)NCC2C(O)C(O)C(O)CN12,1.4418,162.01,248.906879,0.650885988
CIQSAW,CC(O)C(C(=O)O)N1Cc2ccccc2C1=O,1.3907,182.709,280.7084567,0.650885271
SIVMUH,Cc1ccc(C2C(C#N)=C(N)Oc3c2c2ccccc2oc3=O)cc1,1.3756,259.369,398.4914179,0.650877254
QAZYAR,C=C(C)C(=O)OCCNC(=O)n1ncnc1N,1.4037,184.108,282.8613766,0.650877127
HAGTOA,CC(=O)c1c(C)c2nn(-c3ccccc3)nc2[nH]c1=O,1.3842,209.341,321.6300102,0.650875209
JUBLAT,NC(=O)/N=N/c1ccccc1,1.3413,120.114,184.5427787,0.650873477
MIRZAR,Cc1ccc(-n2nnn3c(=O)c4ccc(C)c(C)c4nc23)cc1,1.3688,240.936,370.1745999,0.650871238
AGENOS,CCn1c(=O)c2nc3cc(C)ccc3nc2n(CC)c1=O,1.373,223.666,343.6429987,0.650867327
LALDUX,CO/C(N)=C1\C(=O)CC2(O)Cc3cc4cc(OC)cc(O)c4c(OC)c3C(=O)C2(O)C1=O,1.4622,327.534,503.2470119,0.65084142
MEBXEY,O=C1c2c(Nc3ccccc3)ccc(Nc3ccccc3)c2C(=O)N1c1ccccc1,1.3437,325.873,500.698307,0.650837032
UDUVIZ,O=C(N/N=C(/c1ccccc1)c1ccccn1)c1cc2ccccc2cc1O,1.3483,294.288,452.1690476,0.650836234
GECPAH,COc1ccc(Nc2nncn2-c2ccc(OC)cc2)cc1,1.3588,235.537,361.8994975,0.650835388
QEPGEA,COc1c2c(cc3c1[nH]c1ccccc13)C(=O)OC2C(O)C(C)(C)O,1.4042,262.551,403.4143081,0.650822231
SOMKOU01,O=C1c2ccccc2OC2(CCCC2)N1O,1.3998,169.151,259.9086267,0.650809487
HAMYUQ,CCn1c(=O)cc(O)c2ccccc21,1.3466,151.748,233.1683884,0.650808632
MUDMOO,O=C(O)c1ccccc1N1Cc2ccccc2C1=O,1.3796,198.245,304.6205474,0.650793263
SALMID08,NC(=O)c1ccccc1O,1.3727,107.895,165.7910504,0.650789049
PIVWIA,COCC(=O)n1c2c(c3ccccc31)OC(=O)N1c3ccccc3C(=O)C21COC,1.4151,310.144,476.572,0.650780994
WOFXEX,CC(=O)Nc1ccccc1O,1.3352,122.267,187.8787923,0.650775953
NIMKID,COC(=O)C1ON2C(C3C(=O)OCC3O)CCC2C1C(=O)OC,1.4584,243.869,374.7407002,0.650767317
SEDNIA,Nc1cccc(NC(=O)c2cccc(C(=O)Nc3cccc(N)c3)n2)c1,1.3676,274.303,421.5104826,0.650761989
WENHUS,COc1cc2c3oc(=O)c4ccccc4c3n(C(C)=O)c2cc1OC(C)=O,1.4176,278.307,427.6723686,0.650748144
WALYOB,COc1ncc(C(=O)c2ccccc2)c2ccccc12,1.3297,213.814,328.5665491,0.650747925
JOKVUB,Nc1ccc(C(=O)c2n[nH]c3ccccc23)cc1,1.3544,189.165,290.6910853,0.65074235
WAQQEL01,O=C(c1ccncc1)N1CCN(C(=O)c2ccncc2)CC1,1.3632,234.738,360.7313945,0.650727947
IYOSUN,COC(=O)c1cc(C(=O)OC)c2cc(C)cc(C)c2n1,1.3616,216.737,333.0714155,0.650722307
WEPPAI,C/C(=N\n1c(C)c2c(cc1=O)-c1ccccc1C2=O)c1ccc(C)cc1,1.3305,277.869,427.0217334,0.650713953
IKUYAR,CCOC(=O)C(=c1ccc(=C=[N-])cc1)[N+](C)=O,1.338,187.432,288.0418579,0.650710981
KUZJAS,Cc1ccc2c3c(ccc2c1)C(=O)c1c(ccc2c1NC1(C)CC2OC(C)C1O)C3=O,1.3847,322.417,495.4849377,0.650709992
WELKUV,COc1cc(-n2nnc3c2-c2ccccc2OC3)cc(OC)c1OC,1.3999,261.761,402.2757604,0.650700404
REXDEG,COC(=O)C(CC(C(=O)OC)N1C(=O)c2ccccc2C1=O)N1C(=O)c2ccccc2C1=O,1.4273,340.753,523.6786573,0.650691021
YEXQEX,Cc1c(C#N)c(C)c(C=O)c(C)c1C#N,1.2733,168.092,258.3291503,0.650689246
BOKLAR,CCN(CC)c1ccc(/C=N/N=C/c2c(O)ccc3ccccc23)c(O)c1,1.3178,296.148,455.1327152,0.650684932
GEXKOL,Cn1c2c(c(=O)n(C)c1=O)C(c1ccccc1)N(c1ccccc1)C=C2,1.349,276.457,424.8719905,0.650683044
PUFLAE,O=C(NNC(=O)c1ccc2ccccc2n1)c1ccc2ccccc2n1,1.3721,269.411,414.0446385,0.65068105
JUNFOP,O=C(/C=C/c1ccncc1)NCCNC(=O)/C=C/c1ccncc1,1.3195,263.797,405.4191934,0.650677137
FIYTOY,COc1c(C=O)[nH]c(-c2[nH]c(C=O)c(OC)c2OC)c1OC,1.4153,235.218,361.5009176,0.650670548
LENWIM,COCCn1cc(C(=O)OC)c(O)cc1=O,1.4049,174.643,268.4091437,0.650659652
PAJFEO,O=C(NCCCCNC(=O)c1nccc2ccccc12)c1nccc2ccccc12,1.3408,320.868,493.1445425,0.650657104
AGOLIT,CC(=O)Oc1ccc(/C=N/NC(=O)c2cccnc2)cc1,1.3587,225.122,345.9988996,0.650643688
LEGFUA,C=CCn1c2ccc(C=O)cc2c2cc(C=O)ccc21,1.325,214.538,329.7320305,0.650643493
DIXDOD,O=C(Nc1ccccc1)c1ccccc1O,1.3355,172.387,264.9486724,0.650643004
ECAJEZ,COc1ccc(-c2cc3c(=O)[nH]c(-c4ccccc4)cn3n2)cc1,1.3601,251.915,387.1800149,0.650640504
GUSFOS,C#CCOC1=C/C(=N\c2ccccc2)c2ccccc2C1=O,1.3138,236.103,362.8781704,0.650639854
BICFAU01,COc1cc2c(OC)cc1CCc1cc(=C(C#N)C#N)c(cc1=C(C#N)C#N)CC2,1.314,324.084,498.1079343,0.65063007
AVURAK,O=C(NCc1ccccn1)c1cccc(C(=O)NCc2ccccn2)n1,1.3566,276.47,424.9283031,0.650627407
RIWJOW,NC(=O)Nc1ccccn1,1.3703,108.065,166.0950368,0.650621488
FEDXUJ,Cc1cc2c(O)c(c1)/C=N/OCCO/N=C/c1cc(C)cc(c1O)/C=N/OCCO/N=C/2,1.3855,343.247,527.5681068,0.65062121
SATYEU,CN(C)c1ccc(-c2cc(-c3ccccc3O)n[nH]2)cc1,1.3223,228.071,350.552198,0.650604963
QOGMOO,O=C1c2ccccc2C2OC(c3ccccc3)c3ccccc3CN12,1.36,259.871,399.4303805,0.650603992
YIRXIH,c1ccc(N(c2ccccc2)c2ccc(-c3nnc(-c4ccncc4)o3)cc2)cc1,1.3341,315.951,485.6306651,0.65059936
USOTOO,CN1c2ccccc2C2=CCN3CC21c1ccccc1C3=O,1.3537,229.952,353.4479372,0.650596526
VAYLAL,CCOC(=O)C(=O)c1cnc2ccccn2c1=O,1.4066,188.996,290.4976346,0.650593938
QEVTIX,COc1ccc(/N=C/c2ccc(C(=O)O)cc2)cc1,1.3321,206.883,317.9954175,0.650584847
PAWRUA,Cc1c(C2OCCO2)[n-]o[n+]1=O,1.4781,125.751,193.2911063,0.650578303
ABALIA01,COc1ccc(/C=N/NC(=O)c2ccc(O)cc2)cc1O,1.3801,223.957,344.2431344,0.650577971
GODWIF,COCCn1c(=O)c2cc3c(=O)n(CCOC)c(=O)c3cc2c1=O,1.4216,252.381,387.9337708,0.650577544
DUVDUU,CCOC(=O)CC1C(=O)N(c2ccccc2)c2nc3c(oc4ccccc43)c(=O)n21,1.4152,307.733,473.0185079,0.650572853
ESUJUZ,Cc1ccc(C2C(C#N)=C(N)Oc3n[nH]c(C)c32)cc1,1.3501,212.944,327.3190827,0.650570075
IVAGAQ,Cc1cc(C)nc(-n2nc(Cn3nnc(-c4ccccc4)n3)cc2O)n1,1.3863,271.306,417.0302969,0.650566642
IFOWAB,O=C1CCC2CCc3ccccc3C23OC1C1C(=O)N(c2ccccc2)C(=O)C13,1.3924,300.378,461.7181879,0.650565665