name,smiles,Density,Vint,Veff,pc
UCALAO,O=C(/C=C/c1cccnc1)NCc1ccc(CNC(=O)/C=C/c2cccnc2)cc1,1.3071,325.992,505.8589264,0.644432633
ONEWAG,Cn1c(-c2cccc(=O)[nH]2)nc2ccccc21,1.344,179.225,278.113695,0.644430689
POHFEY,COc1cc(OC)c2c(-c3ccc4c(ccn4C)c3)cc(=O)oc2c1,1.3632,263.072,408.225666,0.644427879
URAPAF,O=C1OCCN1CCc1nc2ccccc2[nH]1,1.3766,179.65,278.7781125,0.644419314
PUHNAJ,N#CC(C#N)=Cc1ccccc1OCC(O)COc1ccccc1C=C(C#N)C#N,1.299,326.324,506.3899865,0.644412427
KOPDUR,COc1ccc(-c2cn3ccccc3n2)c(NC(C)=O)c1,1.3441,223.812,347.3119099,0.644412108
TECLUI,O=C1c2ccccc2C(c2ccccc2)(c2ccccc2)N1O,1.3218,243.773,378.2900052,0.644407721
MIGLUK,CCOC(=O)Cn1cnc2c1c(=O)n(C)c(=O)n2C,1.4225,200.18,310.6419396,0.644407514
BIKQUI,CC(=O)OC1CC2COC(=O)N2CC1OC(C)=O,1.4311,192.238,298.3184611,0.644405309
FUACAM,NC(=O)/C=C/c1ccco1,1.3255,110.641,171.6947378,0.644405306
KIKSAY,COC1=C(C)C(=O)C23C(C1=O)C(COC(N)=O)C1(OC)C4C(CN12)N43,1.4395,259.533,402.7516055,0.644399666
BAGZIU,COC(=O)c1c(C)c(C#N)c(-c2ccccc2)c(C#N)c1C(=O)OC,1.3314,268.523,416.7032821,0.644398572
HEZYUJ,COC(=O)c1cc(C(=O)c2ccc(OC)cc2)c(O)c(Nc2ccccc2)c1C(=O)OC,1.3737,338.96,526.0099516,0.644398455
WUDPOB,Cn1c(=O)[nH]c([O-])c(-c2ccc(-[n+]3c(-c4ccccc4)cc(-c4ccccc4)cc3-c3ccccc3)cc2)c1=O,1.3372,418.679,649.7222824,0.644396862
VIDPAA,COc1cccc2c1CN1C(=O)CCC1C2=O,1.3755,179.778,278.9874922,0.64439448
ZENTOE,CC(=O)Nc1ccc2c(c1)CN(Cc1ccccc1)CO2,1.3304,226.929,352.1620687,0.644387968
FARPUK,O=C1NC(c2ccccc2)CO1,1.354,128.869,199.9874175,0.64438554
BETJER,CC([NH2+]Cc1ccc(C(=O)O)cc1)C(=O)[O-],1.3561,176.03,273.176057,0.644382974
AGASIM,O=c1c2ccccc2nc(-c2ccc3c(c2)OCO3)n1-c1ccccc1,1.3752,266.193,413.0977272,0.64438263
KIWCEA,COC(=O)c1ccc2c(c1)N1C(C(=O)c3ccccc3)C1C2(C(=O)OC)c1ccccc1,1.3461,339.549,526.9385335,0.64438066
WOBQIN,OCc1ccc(-c2nn(Cc3ccccc3)c3ccccc23)o1,1.3293,244.811,379.9169696,0.644380271
OWIJOW,CC(=O)C1=C(C)Nc2nnnn2C1c1ccc(C#N)cc1,1.3576,220.78,342.623832,0.644380161
DUNJII,COC(=O)c1cc(C(=O)OC)c(-c2ccc(OC)cc2)c(-c2nc3ccccc3o2)c1,1.3733,325.014,504.3847133,0.644377182
MUVCUE,Cc1cc(O)c(-c2nc3ccccc3n(Cc3ccccc3)c2=O)c(=O)o1,1.3731,280.633,435.511134,0.644376178
UQOPUN,CC(=O)Oc1c(-c2ccccc2)c(=O)n2c3ccccc3c3cccc1c32,1.3541,279.031,433.0304144,0.644368134
HOLXIR,CC(=O)N1Oc2ccccc2CCC1O,1.3601,162.923,252.8438318,0.64436217
FIDHUX,O=C(CN1C(=O)C2(OC2C(=O)c2ccccc2)c2ccccc21)c1ccccc1,1.3447,304.857,473.1181883,0.644356965
TOSCOW,N#Cc1ccc(/C(=C2/OC(=O)N(Cc3ccccc3)C2=O)c2ccccc2)cc1,1.3308,305.627,474.3167891,0.64435206
JURLEQ,C=CCn1c(-c2cccnc2)n[nH]c1=O,1.3464,160.601,249.2447389,0.644350612
VOHDON,CCOC(=O)c1ccn2c(C(=O)OC)c(C(=O)OC)c(C(=O)OC)c2c1,1.4076,276.01,428.3576646,0.644344721
HAPFOW,CC1=CC(=O)/C(=C(O)/C=C/N2CCCCC2)C(=O)O1,1.3591,207.147,321.4848266,0.644344563
PAZOXN,COc1ccc([N-][N+](=O)c2ccc(OC)cc2)cc1,1.3364,206.649,320.7135546,0.644341335
FULHUP,CCn1c2ccccc2c2nn3c(-c4ccc(OC)cc4)nnc3nc21,1.37,268.778,417.1361251,0.644341221
TAPQOR,COc1ccc(Oc2ccc(C#N)cc2)cc1,1.2999,185.27,287.5345425,0.644339975
KEZGAA,O=C1CC(n2cc(-c3ccccc3)nn2)C2COC1O2,1.4029,206.763,320.8935099,0.64433525
MEPZUD,Cc1ccc(-c2noc(-c3ccccc3O)n2)cc1,1.3416,201.052,312.0307475,0.644333937
VUWSUB,CC(C=O)=C1NC(=C(C)C=O)NC(=C(C)C=O)N1,1.3502,197.409,306.3800128,0.644327279
JEYGUQ,COc1ccc(-c2nc(C#N)c(C#N)nc2-c2ccc(OC)cc2)cc1,1.3162,278.11,431.6294246,0.64432586
DORDUM10,Cc1cccc(-c2nn3c(c2-c2ccnc4ccc(C(N)=O)cc24)CCC3)n1,1.3565,291.177,451.9169696,0.64431526
FIXCUK,N#Cc1ccc(C(O)C2C=CN(Cc3ccccc3)C=C2C(N)=O)cc1,1.3135,281.149,436.3550173,0.644312518
FAYHOD,O=C(O)CC(N/C=C1\C(=O)C=Cc2ccccc21)c1ccccc1,1.3233,258.021,400.462535,0.644307463
KUFLII,COC12CCCCC1=C(C#N)C(C#N)=C(N)O2,1.3359,185.09,287.2714647,0.644303465
TOMHOU,COc1ccc(/C=C/C(=O)c2cccc(/N=C/c3ccccc3O)c2)cc1,1.3027,293.319,455.2551325,0.644295866
NUJKEJ01,O=C(N/N=C(/c1ccccc1)c1ccccn1)c1ccccc1,1.304,247.066,383.4680851,0.644293514
SUQPEZ,COc1cc2c(cc1OC)C1(C)N(CC2)C(=O)c2ccccc2C12OC(=O)c1ccccc1C2=O,1.3886,361.48,561.0504852,0.644291395
ZETVIF,COC(=O)/C(=C/c1ccccc1)C1OC12C(=O)N(C)c1ccccc12,1.3504,265.505,412.0951034,0.64428089
VURFOG,COC(=O)c1ccc(-c2ccc(C(=O)OC)cc2/N=C/c2c3ccccc3cc3ccccc23)cc1,1.3265,381.629,592.3362181,0.644277673
VATNIP,O=[n+]1o[n-]c2ccc(/C=C/c3ccccc3)cc21,1.3443,189.473,294.090651,0.644267335
VODJOO,C=C(C)C(=O)OCC(=O)Nc1cc(C)on1,1.3645,175.695,272.7055781,0.64426625
VEXCOT,C=CCc1cccc(/C=N/NC(=O)c2cccc(C(=O)N/N=C/c3cccc(CC=C)c3O)n2)c1O,1.3302,388.621,603.2073377,0.644257746
VOJDIH,COC(=O)/C=C/c1ccc(/C=C/c2ccncc2)cc1,1.277,222.105,344.7471644,0.644254755
URAHIF,Cc1cc(NC(=O)c2ccccc2C)ccc1C(=O)O,1.3238,217.479,337.5706935,0.644247277
DOLKUM,CN1C(=O)C2(c3ccccc31)C1C(=O)N(c3ccccc3)C(=O)C12,1.3697,248.459,385.6593375,0.644244741
FUBQIC,NC(=O)c1ncn(CCO)c1N,1.3985,130.109,201.956004,0.644244278
KEQRAC,Cc1nn(-c2ccccc2)c2nc3c(c(C)nn3-c3ccccc3)c(C(=O)c3ccccc3)c12,1.335,355.146,551.2627399,0.644240893
GIRSAB10,O=C1CC2C(=O)NCC2CN1,1.3906,118.533,183.9894019,0.644238194
AVECEM,COC(=O)c1cc(C(=O)c2ccc3ccccc3c2)c(C)[nH]1,1.3307,235.64,365.7702592,0.644229524
HEYWEO,O=C1/C(=C/c2ccncc2)CCC/C1=C\c1ccncc1,1.2891,229.153,355.7018638,0.644227718
UNOZEE,Cn1ncc2c(c1=O)CC(C#N)(C#N)C1COCCN21,1.3801,210.152,326.208361,0.644226283
CEFXAO,O=C1c2ccccc2C(=O)c2c1cccc2N1CCCCC1,1.3342,233.431,362.3472623,0.644219025
BONXEJ,C=CC12CN(C=O)C3CC14C(=Nc1ccccc14)C1CC2C3CO1,1.3748,249.123,386.7073063,0.644215912
KIFZAA,COC(=O)Nc1cccc(OC(=O)Nc2cccc(C)c2)c1,1.352,237.465,368.6126762,0.644212788
UMOMIU,CC1=NOC(=O)/C1=C\c1ccc2c(c1)Cc1ccccc1-2,1.3322,220.904,342.9080771,0.644207631
COVNAC,O=C1N2C=CC=CC2=NC1(c1ccccc1)c1ccccc1,1.3106,233.535,362.5173845,0.644203589
IZERUB,COc1ccc(-c2cc3cc(-c4nnc(-c5ccccc5)o4)ccn3n2)cc1OC,1.3561,314.07,487.5361558,0.644198376
DMAZTO,CN1C(=O)N(C)C1=O,1.377,88.597,137.5306357,0.644198288
UBEZEG,c1ccc2nc3c(cc2c1)CC1OC3Cc2cc3ccccc3nc21,1.3505,256.746,398.5517012,0.644197476
EFUPEB01,O=C(O)c1cccnc1-c1nnc(-c2ccccn2)n1-c1ccccc1,1.3648,268.931,417.470222,0.644192054
QINRAJ,COC(=O)Cc1cc2c(cc1/C=C1\N=C(OC)c3c1ccc(OC)c3OC)OCO2,1.3862,317.273,492.5158493,0.644188406
JOXWUR,O=C1Nc2ccccc2C12OC2c1ccccc1,1.3407,189.164,293.6476108,0.64418709
UDAKUF,CC(=O)N(c1ccccc1)c1ccc2c(c1)oc1ccccc12,1.3219,243.67,378.2613881,0.644184175
PROTPN,CN1CCc2cc3c(cc2C(=O)Cc2ccc4c(c2C1)OCO4)OCO3,1.4003,269.764,418.7685293,0.644184033
DIWWEM,O=c1c2ccccc2cnn1CCO,1.3659,148.859,231.0837266,0.644177771
PEDGEM,COC12CCCC(C#N)(C#N)C1CC(=O)O2,1.3562,173.594,269.4829716,0.644174283
XAQNAF,O=C1CCCC2=C1C(c1ccncc1)C1=C(CCCC1=O)O2,1.3587,232.348,360.6960128,0.644165701
OKATAW,C=C1NC(=O)NC2c3ccccc3NC12C(C)=O,1.3755,189.055,293.488295,0.644165383
FUMSUD,O=C1CCC23OC=CC2C(O)c2cc(-c4ccccc4)ccc2N13,1.3618,250.67,389.1408963,0.64416257
UYUZUM,COc1cc(/C=N/NC(=O)/C=C/C=C/c2ccc3c(c2)OCO3)ccc1O,1.3597,288.032,447.143842,0.644159604
NEHZOQ,CCOC(=O)c1cc2ccc3ccccc3c2nc1C,1.3157,215.54,334.6067713,0.64415911
DOLKAS,CC(=O)/C(C)=C/C=C1/C(=O)N(C)c2ccccc21,1.286,200.553,311.3434906,0.644153503
PILZIW,Cc1ccc(-n2nnc(-c3nn(-c4ccccc4)cc3/C=C/C(=O)c3nnn(-c4ccccc4)c3C)c2C)cc1,1.3235,425.302,660.2537538,0.64414931
PIVXIB,C=CCOc1ccc(/C=C(\C)C(=O)NC2C(O)C(O)C3OCOC3C2O)cc1O,1.4095,308.992,479.692517,0.644145967
BUWSER,COC(=O)c1nonc1-c1ccccc1O,1.4035,167.708,260.357951,0.644143954
KAMNOC,O=C(NCCCCCCNC(=O)c1ccncc1)c1ccncc1,1.3062,267.107,414.6723339,0.64413991
LEWCEW,Cc1nc(OC(=O)c2ccccc2)cnc1C(=O)N(C)C,1.3479,226.257,351.2544651,0.644139854
EJIBEE,COc1c(OC)c(OC)c2c(c1O)c(=O)c1ccccc1n2C,1.3883,242.786,376.9162162,0.644137847
LEMYOR,CCOC(=O)C12CC(=O)CCC13c1cc(OC)c(OC)cc1CC(C(=O)OC)N3C(=O)C2O,1.4139,348.887,541.6341653,0.644137727
UHETUX,Oc1ccc(/N=C/c2ccncc2)cc1,1.3041,162.469,252.2279787,0.644135519
EMOSAD,COc1ccc(C2=NN(C(=O)Cn3c(=O)oc4ccccc43)C(c3ccccc3)C2)cc1,1.3664,334.386,519.1236929,0.644135501
NAZCIC,CC(=O)N1c2ccccc2N(C(C)=O)C1CC#N,1.3288,195.69,303.8027917,0.644134963
HOGMUN,COC(=O)c1ccccc1C#Cc1ccccc1OCC#N,1.2985,239.787,372.2628382,0.644133594
JOLGAV,c1ccc(-c2cc(-c3ccc4ccccc4n3)no2)cc1,1.3189,220.673,342.5891997,0.644132974
DIWXOY,COC(=O)c1nc(-c2ccccc2)c2ccccc2c1-c1ccccc1,1.3081,277.304,430.5118243,0.644126327
VIFRUY,NC(=O)c1ccccc1Cn1cccn1,1.3277,162.003,251.5104361,0.644120389
USOREA,CCn1c(=O)c2ccccc2c2c3c4ccccc4n(CC)c3ccc21,1.3196,275.72,428.058237,0.644117964
REBTUO,CN1C(=O)C(O)(CC#N)c2ccccc21,1.3361,161.771,251.1522058,0.644115386
ULEXAM,CC1=CC(=O)C=C(C)C1=NC(N)=O,1.3257,143.675,223.0595628,0.644110471
TEWZED,O=C1c2cccnc2-c2cccc3c(N(c4ccccc4)c4ccccc4)ccc1c23,1.3263,321.083,498.4954091,0.644104227
ZAMMAB,Cc1ccc(/N=C/c2cccc(O)c2O)cc1,1.3001,186.832,290.0648722,0.644104192
MAVWOY,CO/N=C1\O/C(=C\c2ccccc2)c2ccccc21,1.3139,204.407,317.351199,0.644103443
QOYGOB,CC(=O)c1cccc(/N=C/c2ccccc2O)c1,1.3016,196.477,305.040366,0.64410164
HERNEY,O=C(c1cccc2ccccc12)N(Cc1cccc2ccccc12)C(=O)c1c2ccccc2cc2ccccc12,1.3117,420.09,652.2238861,0.644088647
QUYDUK,CCOc1cccc(/C=N/C)c1O,1.2987,147.497,229.0017251,0.644086851
HOHSOP,COc1cccc2c3ccccc3c(=O)n(-c3cccc4cccnc34)c12,1.354,278.152,431.8555596,0.644085722
TEMGUP,COC(=O)C1C(C)C=C2COc3ccc4c([nH]c5ccccc54)c3C2C1C(=O)OC,1.3691,316.513,491.421188,0.644076828
QOQTAR,Cc1ccc(C(N2C(=O)CCC2C(=O)O)N2C(=O)CCC2C(=O)O)cc1,1.3918,276.749,429.6848869,0.644074317
YOVGEW,O=C(NN=C(c1ccccn1)c1ccccn1)c1ccccc1,1.3156,245.612,381.3431844,0.644070774
WAFRON,COc1ccccc1C(=O)c1cccc(C)c1C#N,1.2869,208.685,324.0094338,0.644070753
WIYXIL,CC(=O)N1CCCCC1C12CCC(O)C(O)C1CC(=O)O2,1.3883,228.923,355.4418703,0.644051867
DUTMEL,O=C1OCCN1CCN1C(=O)CC(c2ccccc2)=Nc2ccccc21,1.3602,274.527,426.2507502,0.644050479
ATIQID,O=C(Nc1cccc(NC(=O)c2ccccc2)c1)c1ccccc1,1.3086,258.363,401.1545374,0.644048554
SUKLAM,O=C1Nc2ccccc2C#CCCCOC(=O)Nc2ccccc2C#CCCCO1,1.3242,324.806,504.3222351,0.644044576
OPMHOC,O=C1ON2C3Cc4ccccc4N2C1(c1ccccc1)C3,1.3683,217.374,337.5151936,0.644042118
LOHWIQ,Cn1c2ccccc2c2cc(/C=C/c3nc4ccccc4o3)ccc21,1.3203,262.555,407.6680093,0.644041215
JAXNOM,O=C1c2ccccc2C(=O)C12C(c1ccccc1)C1CCCN1C21c2ccccc2-c2nc3ccccc3nc21,1.3525,410.553,637.4674164,0.644037624
HITYIV,CCOC(=O)C1(O)C(=N)N(O)C(C)C1c1ccccc1,1.3463,220.937,343.0566194,0.644024885
XIRTAW01,COC(=O)/C=C/C(=C/Nc1ccccc1)C(=O)OC,1.3272,210.396,326.6899031,0.644023577
INEFAI,CCOC(=O)C(NC(C)=O)C1(O)C(=O)c2ccccc2-c2ccccc21,1.3591,277.872,431.4631532,0.64402255
EKOZOV,O=C1C(=O)N(C/C=C/c2ccccc2)c2ccccc21,1.3091,214.933,333.7368729,0.644019338
ZUTCUO,CN1C(=O)C2ON(c3ccccc3)C(/C=C/c3ccccc3)C2C1=O,1.3401,266.65,414.0431098,0.644015064
OBUYIV,COC(=O)/C=C/c1c[nH]c2ccccc12,1.3103,164.117,254.8361076,0.644009993
NEQPOP,O=C([O-])CC1(CC(=O)O)C(=O)Nc2cccc[n+]21,1.4355,186.293,289.2705872,0.644009478
YIXPUR01,COc1cc(/C=C2\N=C(c3ccccc3)OC2=O)cc(OC)c1OC,1.3611,266.445,413.7294709,0.644007784
OQODOP,O=c1cc(-c2ccccc2)oc2cc(-c3ccccc3)nn12,1.3496,228.285,354.4769197,0.644005258
DOPDAN,CC(=O)Nc1cccc(NC(C)=O)n1,1.3449,153.537,238.4096671,0.644004926
WIGPOT,O=C1C=Cc2ccccc2/C1=C/Nc1ccc(Oc2ccc(N/C=C3\C(=O)C=Cc4ccccc43)cc2)cc1,1.3304,408.495,634.3066274,0.644002415
HOBRIC,CN1C(=O)C2(OC(=O)C3c4ccccc4NC(=O)C32)c2ccccc21,1.4045,254.39,395.0151297,0.644000649
NETTEO,CCOc1nc(-n2c3ccccc3c3ccccc32)nc(-n2c3ccccc3c3ccccc32)n1,1.3545,359.376,558.0383594,0.643998739
NILPEG,C=CCN1C(=O)C2(/C(=c3\c(=O)c4cccc5cccc3c54)C(=O)c3ccccc32)c2ccccc21,1.3515,358.558,556.7728161,0.643993366
WOMBAC,COc1cc(/C=C2\C(=O)N(c3ccccc3)N=C2C)cc(OC)c1O,1.3475,268.345,416.6924873,0.643988092
IBEZAQ,O=C1c2ccccc2N2C(=O)c3ccccc3C2(O)C2CCCN12,1.3895,246.371,382.5727117,0.643984771
REKGOG,COc1ccccc1-c1c2c(nc3ccccc13)CC2,1.299,214.96,333.8015194,0.643975499
SAQQOQ,C[NH2+]CC(/N=C/c1ccccc1O)C(=O)[O-],1.3378,177.536,275.6914296,0.643966337
XOZKED,Cc1nc2ccccc2n(CCN2CCOC2=O)c1=O,1.3799,211.65,328.6677973,0.643963302
KEFFIM,N/C(=N\c1nc(-c2ccccc2O)n2ccccc12)c1ccccn1,1.3519,260.343,404.2824117,0.643963211
GOGYUZ,COc1ccc(O)c(/C=N/c2ccccc2C#N)c1,1.3118,205.5,319.1191118,0.643960178
CEXPIF,O=C1c2ccccc2C(=O)N1c1cccc2ccccc12,1.342,217.6,337.9098001,0.643958831
YOLHIQ,O=C(O)c1cc(-c2ccccc2)nc(-c2ccccc2)c1,1.3172,223.332,346.8130431,0.64395502
SOQSOG,O=C1c2ccccc2C2c3ccccc3CC(CO)N12,1.3415,211.326,328.1715459,0.643949796
PEBHAF,COC(=O)C(C(O)c1ccccc1)N1C(=O)c2ccccc2C1=O,1.3708,253.601,393.823165,0.643946376
JECQUG,Cc1ccc(C2=Cc3nc4ccccc4cc3C([N-][N+]#N)O2)cc1,1.3353,251.549,390.6405252,0.643939847
GEFMUA01,N#CC1=C(N)Oc2c(c(=O)oc3ccccc23)C1c1cccc(Oc2ccccc2)c1,1.3694,318.678,494.8949454,0.643930602
HAGYIY,O/N=C/c1ccc2cccccc1-2,1.2794,142.977,222.0386183,0.643928525
YUQCUJ,C#CCC1C(=O)N(C)c2ccccc2N(C)C1=O,1.3083,197.878,307.2998848,0.643924745
WOZZUJ,COc1cc(OC)c(-c2cc(-c3cnccn3)nc(-c3cnccn3)c2)c(OC)c1,1.3618,314.986,489.1670435,0.643923184
ZAHTAG,COc1ccc(CCN2C(=O)CCC2=O)cc1OC,1.3525,208.021,323.053625,0.643920959
BONKIA,COc1nccc2c1nnn2C/C=C/c1ccccc1,1.3177,215.947,335.3673016,0.643911911
WASKIL,COC(=O)C(C(=O)OC)=C1c2ccccc2N(C(=O)OC)[C@@H]1OC(C)=O,1.4054,276.256,429.0282116,0.643911035
BIMGUZ10,CCOC(=O)c1c(C2OCC(O)C2O)cn(C)c1C,1.3728,209.622,325.547182,0.643906664
PABNAL,Cc1ccc(C(=O)/C=C/c2ccc(C#N)cc2)cc1,1.2489,211.559,328.5561574,0.643905144
MUWJAQ,COc1ccc2[nH]cc(C3(c4c[nH]c5ccc(OC)cc45)C(=O)c4ccccc4C3=O)c2c1,1.3685,340.777,529.2348668,0.643905044
WUQVEL,O=C1N(c2cc(OCc3ccccc3)ccn2)CCN1c1cc(OCc2ccccc2)ccn1,1.3456,359.323,558.039645,0.64390228
RASPOT,COc1ccccc1N/C=C1\C(=O)c2ccccc2OC1OC,1.3551,245.489,381.2551309,0.643896908
KIGBUA,COC(=O)c1c2c(c3n1CC(O)C1OC(C)(C)OC31)C(=O)c1ccccc1C2=O,1.4245,298.081,462.9351224,0.643893681
BASGUZ,CC1(O)c2ccccc2N2C(=O)CCC23C=CC1O3,1.3799,199.224,309.40567,0.643892531
CULPOO,Cc1ccc(/N=C/c2ccccc2O)cc1,1.2717,177.493,275.6563539,0.643892287
PURFIT,O=C1c2cccc3c(N4CCCCC4)ccc(c23)C(=O)N1Cc1ccncc1,1.3471,294.607,457.5413137,0.643891581
LOSNIT,COc1nc2c(C)cccc2cc1C1C(C#N)=C(N)OC2=C1C(=O)CC(C)(C)C2,1.3417,310.145,481.67418,0.64388961
HUKJON,CC(=O)OCC1NC(=O)c2cc3c(cc2C1C(OC(C)=O)C(C)OC(C)=O)OCO3,1.4261,315.754,490.3867677,0.643887684
YEGZIW,CCN1C(=O)C(C#N)=C(C)/C(=N/Nc2ccc(C(=O)O)cc2)C1=O,1.3741,253.752,394.0937043,0.643887475
EFAVOZ,COC(=O)C1C2C=CC3(O2)C1C(=O)N1CCn2cccc2C13,1.4157,226.665,352.0267982,0.643885639
TACSIC,c1ccc(-c2c3c(nc4ccccc24)-c2ccccc2OC3)cc1,1.3175,250.867,389.6144012,0.643885337
VABLER,Cc1ccc(C/N=C/c2c(NCc3ccc(C)cc3)c3ccccc3oc2=O)cc1,1.2921,327.843,509.1732696,0.643873156
WEHLAX,CC1(C)NC(c2n[nH]c(C(=O)[O-])c2C(=O)O)=[N+](O)C1(C)C,1.4249,222.196,345.0934822,0.643871911
HUGBAP,CON1C(=O)c2ccccc2C1(O)C(=O)C1CC1,1.3691,192.963,299.6920976,0.643870831
YAXGIN,COc1ccc2nc(-c3ccccc3)c(-c3ccccc3)nn12,1.3229,243.376,377.9895555,0.643869643
LOYTIE,COc1ccc(/C=C2\OC(=O)N(c3ccc(OC)cc3)C2=O)cc1,1.3666,254.345,395.0335099,0.643856771
MIFCAF,NC(=O)CCC(NC(=O)Cc1c[nH]c2ccccc12)C(=O)O,1.3778,235.226,365.3391183,0.643856593
LINLUP,O=C(O)C1C2C=CC3(CN(c4ccccc4)C(=O)C13)O2,1.4002,206.999,321.498965,0.643855883
PUSYEK,CCCCCCn1nc2c(n1)c1c3ccc(OC)cc3n(C)c1c1c2c2ccc(OC)cc2n1C,1.3338,376.15,584.2201646,0.643849738
ELAFAY,CN(C)c1ccc(C(=O)OCc2cccc3cc4ccccc4nc23)cc1,1.3142,289.749,450.0280054,0.643846597
GOFQOK,Cc1cc(O)ccc1/N=N/c1c(C)n(C)n(-c2ccccc2)c1=O,1.329,259.156,402.5211631,0.643831987
LESGOH,Cc1ccccc1C1ON=C2c3ccccc3OCC21C#N,1.3378,231.847,360.1055759,0.643830631
PUFMUB,O=C1C(=O)C2(C(=O)c3ccccc3)C(c3ccccc3)N(c3ccccc3)OC23C(=O)Oc2ccccc2N13,1.388,397.563,617.499298,0.643827453
PEDCUX,O=C(Nc1ccncc1)c1ccncc1,1.3315,159.848,248.2787964,0.643824613
YOJDOS,NC(=O)C1=NCCC1,1.3221,90.621,140.7555545,0.643818287
EGOTEZ,Oc1ccc2ccccc2c1-c1nc2ccccc2o1,1.3584,205.478,319.1605947,0.643807548
RAZQUE,O=C1c2ccccc2C2C3CC4C(c5c(-c6ccccc6)nnc(-c6ccccc6)c5C42)C13,1.3433,339.181,526.8393047,0.643803522
QOGZIW,CN(C)/C=C1\OC(c2cc3ccccc3n2C)=NC1=O,1.337,215.192,334.251861,0.64380195
VITBUX,COC(=O)c1c(-c2ccccc2OCc2ccc(C)cc2)oc(C#N)c1C#N,1.3296,299.204,464.7469451,0.643799821
UCEWIL,COc1ccccc1-c1cc(-c2ccccc2)nc(=O)[nH]1,1.3271,224.038,347.9933986,0.643799569
UGELID,O=NN1CCCc2ccc3c(c21)N(N=O)CCC3,1.3894,189.373,294.1507475,0.643795746
PUFPEM,c1cc(COc2ccc3ccc4ccc(OCc5ccncc5)nc4c3n2)ccn1,1.3508,311.943,484.5379224,0.643794811
ELANUC,CCOC(=O)c1ncn2c1CN(C(C)=O)c1ccccc1-2,1.3701,222.471,345.5630198,0.643792846
NIKBOB,Cn1cc(Cc2nnc(-c3ccccc3)o2)c2ccccc2c1=O,1.3522,250.72,389.4420486,0.643792834
KEZFUQ,COc1cccc(/N=C/c2ccccc2O)c1,1.3074,185.697,288.4452657,0.643785917
BOQTAC,CC(=O)N1C(=O)C2(OC3(c4ccccc4)Oc4ccccc4C32)c2ccccc21,1.3685,299.289,464.8900458,0.643784488
EKOMEW,OCC1OC(c2c[nH]cn2)C(O)C1O,1.4328,149.284,231.8902576,0.643770038
KEKDIO,Cc1c(-n2nnc3ccccc32)c(=O)oc2ccccc12,1.3732,215.712,335.0768725,0.643768692
FAVYUZ,CN1CCC23C(=O)Nc4ccccc4C12C(=O)OC3c1cccnc1,1.3895,257.836,400.5123296,0.64376545
IBITAO,CC1C2CC3COC(=O)C1N3O2,1.4282,126.553,196.5859873,0.64375392
BUQPEK,Oc1ccc2ccccc2c1/C=N/Nc1nnc(-c2ccccc2)c(-c2ccccc2)n1,1.3322,334.744,519.9926207,0.643747597
VURDUK,c1ccc2c(c1)Oc1ccccc1N2c1ccc(-c2cc(-c3ccncc3)nc(-c3ccncc3)c2)cc1,1.3325,393.247,610.8756829,0.643743091
ROHCAS,CC(=O)N1C(=O)N(C(C)=O)C2CC1N(C(C)=O)C(=O)N2C(C)=O,1.4453,239.718,372.3877796,0.643732187
FURMAJ,COC(=O)c1ccc(Nc2ccc(Nc3ccc(C(=O)OC)cc3)cc2)cc1,1.3406,299.932,465.9271335,0.643731559
MUVDIS,COc1ccc(C(=O)C23C4C(=O)N(C)C(=O)C4C4CC(=O)CC(C5C(=O)N(C)C(=O)C52)N43)cc1,1.4223,349.598,543.0880042,0.643722559
INOBAQ,CN1C(=O)CC(c2ccccc2O)=Nc2ccccc21,1.3448,211.523,328.5952106,0.64371906
SINMEJ,Cc1ccc2c(c1)c(-c1ccccc1)c(-c1ccccc1)n1c(=O)c3ccccc3nc21,1.3165,334.66,519.8851876,0.643719052
APIHIS,COc1cc(OC)cc(C(N)=O)c1,1.3441,144.006,223.7120059,0.643711541
EWOWIW,N#CCOc1ccccc1OCC#N,1.3033,154.242,239.6148806,0.643707935
GOZKUB,CN1C(=O)C2(c3ccccc31)C1C(=O)CCC12C,1.3267,194.265,301.7922129,0.643704482
NESDIZ,COc1ccc(-c2nnc(C)nn2)cc1,1.3361,161.676,251.1661675,0.643701346
VUXQEL,O=C(OCCN(CCOC(=O)c1ccccc1O)c1ccccc1)c1ccccc1O,1.3554,332.14,515.984878,0.643701035
OMETEI,O=C1C=CC(/N=N/c2ccccc2C(=O)O)=C/C1=C/NC1CCCCC1,1.3361,280.939,436.4444719,0.643699298
LUHVUG,C/C(O)=C/C(C)=N/c1ccc(-c2ccc(/N=C(C)/C=C(/C)O)cc2)cc1,1.2728,292.411,454.2693132,0.643695252
JEHJIP,O=C1C(=C/c2ccccc2)/C(=C\c2ccccc2)C(=O)N1c1ccccc1,1.3015,288.377,448.0059295,0.643690141
XUHZIL,NC(N)=[NH+][C@@H](C(=O)[O-])c1ccccc1,1.3562,152.183,236.4232129,0.643688909
WOCLUY,CCC(=O)c1cnc(N)[nH]1,1.3351,111.346,172.9812131,0.643688399
BUNQEJ,O=C1C=CC(O)=C/C1=C/NC(CO)(CO)CO,1.384,186.204,289.2791868,0.643682672
VIJTIU,Cc1ccc(N(CC/C(C=O)=N\O)N=O)cc1,1.3371,187.939,291.9750991,0.643681604
WOZWAL,CC1(C)CC(=O)C2=C(C1)N(c1ccccc1)C1(O)c3ccccc3C(=O)C21O,1.3615,294.523,457.5609289,0.643680396
MUXXOV,CC(=O)N1N=C(c2cccnc2)OC1c1ccccn1,1.371,209.019,324.7266667,0.643676733
PIYWIG,COC(=O)C(NC(=O)c1ccc2ccccc2c1O)C(C)O,1.3653,237.304,368.6703165,0.643675364
SOFTEN,COc1cc(CNC(=O)C(=O)NCc2ccc(O)c(OC)c2)ccc1O,1.3921,276.517,429.592289,0.643673099
JABZIV,CC12C(=O)NC(=O)N3CCOc4c5c(cc6occc46)OC(=O)C1C5C32,1.4748,256.628,398.6939655,0.643671644
ZUPHIE,N#C/C(C=O)=C(/c1ccccc1)c1cc(-c2ccccc2)n2cc(C#N)c(-c3ccccc3)cc12,1.2801,375.028,582.6600734,0.643648016
ZIWPIH,CN1C(=O)C2(C)CC(C#N)N=C2c2ccccc21,1.3228,193.201,300.1657049,0.643647815
ZUDKAN,O=Cc1ccc(OCc2cn(Cc3ccccc3)nn2)c(OCc2cn(Cc3ccccc3)nn2)c1,1.3456,381.422,592.6019291,0.643639484
PACTAN,CC(=O)Nc1ccc(N)cc1,1.2941,123.954,192.5830361,0.643639245
HETYAJ,CCOC(=O)Cc1c(/N=N/c2ccc(OC)cc2)c(O)c2ccccc2c1C(=O)c1ccc(OC)cc1,1.3415,396.917,616.6799784,0.643635295
JOSJEI01,COC(=O)CN1C(=N)c2ccccc2C1=O,1.3695,170.19,264.4217725,0.643630811
MIRMUX,COc1cc2cnc3ccccc3c2cc1OC,1.3284,192.372,298.8862845,0.6436294
RAXROY01,Cc1ccc(Nc2nnc(-c3ccccc3)o2)cc1,1.3237,202.752,315.015785,0.64362489
BEMAON,CCOC(=O)c1c(C(=O)OC)c2c(oc1=O)c1ccccc1n2C,1.401,251.058,390.0690577,0.643624494
SIJZIW,CO/N=C(\C)c1ccc(OCC2CO2)cc1C#N,1.3112,200.604,311.6796786,0.643622327
QURCEO,CC(NC(=O)C([NH3+])Cc1ccccc1)C(=O)NCC(=O)[O-],1.3465,232.679,361.5181772,0.643616323
BOBZTZ,O=C(On1nnc2ccccc21)c1ccccc1,1.3686,186.698,290.0765547,0.643616304
EGEDIG,COc1ccc2c(c1)c1cc(OC)ccc1n2C,1.3295,193.826,301.1566219,0.643605307
FADQOU,N#C/C=C(\OC(=O)c1cc2ccccc2[nH]1)c1ccccc1,1.3208,233.115,362.206277,0.64359735
BOGRUL01,COC(=O)N/N=C/c1ccco1,1.3778,130.358,202.5472703,0.643592974
XURLOO,Cc1ccc(C2C(C#N)=C(N)N3C(=O)N(C)C(=O)C23)cc1,1.352,223.007,346.5049176,0.643589712
DUNRIO,O=C(Nc1ccncc1)OCc1ccccc1,1.3238,184.144,286.1202983,0.643589431