name,smiles,Density,Vint,Veff,pc
SOYNUQ,COc1ccc(NC=C2C(=O)OC(C)(C)OC2=O)cc1OC,1.3897,236.831,366.9709564,0.645367149
UGONEM,COC(=O)C1(c2ccccc2)c2c(n(C)c3ccccc23)CCC1(O)c1ccccc1,1.327,332.072,514.5525445,0.645360719
QANJIA,COc1ccc(-n2nnc3c2-c2ccccc2COC3)cc1,1.3625,230.552,357.247074,0.64535728
HUDHUK02,O=C(N/N=C/c1ccco1)c1cccnc1,1.3632,169.075,261.98971,0.645349773
KUTDIN,CC(C)(C)C(=O)c1c2c3c(cccc3c3ccccc13)C(=O)NC2=O,1.3495,262.949,407.4540738,0.645346352
ROYWEJ,COc1cccc2cc(N)c(=O)oc12,1.3872,147.598,228.7134649,0.64534023
YELRIT,Cc1ccc(C(=O)NCC(=O)O)cc1,1.3433,154.029,238.6797492,0.645337531
QUBVIS,COC1=C(C#N)C(=C2C(C#N)=C(OC)C(OC)=C2C#N)C(C#N)=C1OC,1.3353,279.356,432.8850225,0.645335333
DUTZOH10,C/C(=C/CNc1ncnc2[nH]cnc12)CO,1.3574,172.985,268.0546663,0.645334784
HABVIR,Cc1ccc2c(/N=N/c3cccc4ccccc34)ccc(O)c2n1,1.3292,252.448,391.1898758,0.645333674
BAGZOZ,COc1ccc(C2/C3=C/C=C\C=C/C(C3)n3c(=O)n(-c4ccccc4)c(=O)n32)cc1,1.373,311.547,482.7693074,0.645333072
BIDJON,CNC(=O)N(C)N=O,1.3785,90.995,141.0080408,0.645317809
ZUSQEM,CCOC(=O)c1cc2ccc3ccc4ccc5ccc6ccccc6c5c4c3c2cn1,1.3336,322.337,499.5018789,0.645316892
BUFCUB,c1cc(COc2ccc(OCc3ccncc3)cc2)ccn1,1.314,238.235,369.1753635,0.645316626
NUDCOG,COC(=O)/C(C#N)=C/c1ccc(N(C)C)cc1,1.2868,191.62,296.9484297,0.645297233
WURBOD,OCC/N=C/c1cc(/N=N/c2cccnc2)ccc1O,1.341,215.84,334.4872846,0.645286114
CACZEN,Cc1ccc(-n2c(=O)c3cccn3c3c(C)cccc32)cc1,1.3189,234.092,362.7738817,0.6452835
BASFUY,O=C1CCC23OC=CC2C(O)c2ccccc2N13,1.3933,186.953,289.7254687,0.645276374
OKIVIQ,CN1C=C(C=O)c2c(cc(O)c3ccccc23)-c2ccccc21,1.3344,241.796,374.7180222,0.645274542
BASKAJ,O=C1c2ccccc2N2C(=O)CC3CCC1C32,1.3707,177.53,275.1246374,0.645271182
CYMUDO10,Cc1c2n3c(c(C)c(=O)n3c1=O)CC(C#N)(C#N)C2,1.3626,199.805,309.6476381,0.6452657
PAZDEA,CCOc1ccccc1NC(=O)COc1ccccc1C(=O)NCc1ccccn1,1.3426,323.363,501.1346661,0.645261687
SABNOY,CCO/C(=N/C(=O)OC)Nc1c[nH]c(=O)[nH]c1=O,1.4508,189.133,293.1125764,0.645257199
USIJUC,COc1ccc(-c2c3c(nc4c2c(C)nn4-c2ccccc2)-c2ccccc2C(=O)C3=O)cc1,1.36,350.717,543.5322577,0.645255171
KIZNEP,N#Cc1c(-c2ccccc2)c(-c2ccccc2)nn(CCCc2c[nH]nn2)c1=O,1.3307,307.718,476.8958291,0.645252026
MXINAC,COc1ccc2[nH]cc(CC(=O)O)c2c1,1.3633,161.18,249.7951346,0.645248756
MOBKOD,CC(=O)Oc1cccc2ccc(/C=C/c3ccc(/C=C/c4ccc5cccc(OC(C)=O)c5n4)cc3)nc12,1.3248,404.535,626.953723,0.645239011
JASGOA,N#[N+][N-]Cc1ccc(C(=O)O)c2c1ccn2CCc1ccccc1,1.3417,255.654,396.2163204,0.645238439
TAGNAQ,Cc1cc2[nH]c(=O)[nH]c2cc1C,1.3402,129.58,200.8274191,0.645230619
LODLOH,COC(=O)C1C2C=CC3(O2)C1C(=O)N1CCCOC13,1.436,197.799,306.5576564,0.645226097
HEHLFB10,Cc1cc2c(cc1C)N1CCOC13C(=O)N(C)C(=O)N=C3N2C,1.3936,241.523,374.3236085,0.645225133
FEXRIK,COc1cccc(/C=N/c2cccc3ccccc23)c1O,1.3194,225.036,348.7716605,0.645224442
YIKZAV,COC(=O)c1cc(-c2cccnc2)c[nH]1,1.3435,161.155,249.7688591,0.645216544
ACEMID07,CC(N)=O,1.2724,49.713,77.04890848,0.645213553
CEMHOT,CCOC(=O)C1(C2(C(=O)OCC)C(=O)N(C)c3ccccc32)C(=O)N(C)c2ccccc21,1.3716,340.713,528.0643064,0.645211191
VECCAH,Cc1ccccc1NC(=O)c1ccccc1C(=O)O,1.3333,204.989,317.7092144,0.645209489
YOQHEU,Cc1ccc2c(c1)CC1(C)C(=O)n3c(cc4ccccc43)-c3cccc-2c31,1.3258,282.159,437.3155458,0.645206883
OMUPUK,COc1cc(OC)c2c(-c3c(OC)ccc4ccccc34)nc3ccccc3c2c1,1.3325,317.732,492.4500185,0.645206596
UCOPAD,COC(=O)C1C(C(=O)OC)C2c3ccccc3C1N2N=O,1.4098,220.463,341.6966271,0.645200984
SICJUK,O=C(O)c1cccc2c1C(=O)N(CCc1ccccc1)C2,1.3451,223.91,347.0398366,0.645199705
COJHEP,O=C1c2ccccc2C(=O)N1OC1c2ccccc2CCc2ccccc21,1.3486,282.13,437.2784165,0.645195348
JEXMAB,O=C1c2cccc3cccc(c23)C(=O)N1c1ccc(C#Cc2ccc3ccccc3c2)cc1,1.3238,342.455,530.7772454,0.64519533
NEQTEL01,O/N=C/c1cccc2ccccc12,1.2957,141.456,219.2453562,0.645194965
TIYXAC,COC(=O)C1(C)CC(Nc2ccc(OC)cc2)(C(=O)OC)c2cc(OC)ccc2N1,1.3635,325.453,504.4266895,0.645193854
QAKXOR,COC(=O)c1cc(O)c2cc(N(C)C)ccc2c1,1.3343,196.813,305.0451053,0.645193109
ISUTIA,O=C1c2cccn2C(=O)C2(OO)CCCN12,1.4489,164.207,254.5100232,0.645188735
MPBPZO,CC1C=CCn2c(=O)c3cc4ccccc4cc3c(=O)n21,1.3589,219.265,339.8499075,0.645181873
SABKUD,O=C1OCCN1CCn1c2ccccc2c2nc3ccccc3nc21,1.3787,258.095,400.0367281,0.645178259
DITBAJ,COc1ccc(Cc2nccc3cc4c(cc23)OCO4)cc1O,1.3781,240.302,372.463275,0.645169648
DAYMEW01,OCCn1cnnc1,1.358,89.195,138.2515678,0.645164474
GITCUI,O=C1NC(=O)N(Cc2ccccc2)C(=N/c2ccccc2)/C1=C1\CCCN1,1.3486,286.118,443.4816952,0.645163043
EPUYOG,OC12CCCCC13N=C(c1ccccc1)CN3c1ccccc12,1.3242,246.081,381.4258039,0.645160861
POHKOO,CC(=O)N/C=C1/CCc2ccccc2C1=O,1.3156,175.159,271.5005627,0.645151517
CIDQUE,Cc1cc(N(Cc2ccco2)C(=O)CCC(=O)N(Cc2ccco2)c2cc(C)on2)no1,1.3881,338.167,524.1685928,0.645149299
GASCOS03,Cn1c(=O)n(C)c(=O)n(C)c1=O,1.4316,128.015,198.4280022,0.645145839
HOMDUI,Cc1c(NC(=O)/C=C\C(=O)O)c(=O)n(-c2ccccc2)n1C,1.372,235.119,364.4439129,0.645144538
QAGHAJ,CC(=O)Nc1cccc(CCc2cccc(NC(C)=O)n2)n1,1.3266,240.772,373.2068639,0.645143547
BEBFAS,COC(=O)C12COc3ccccc3C1c1c(n(C)c(=O)n(C)c1=O)OC2c1ccccc1C,1.3927,344.744,534.3722285,0.645138317
UKUROI,CCOC(=O)C1=C(C)NC(=O)NC1c1cccc(OC)c1,1.3618,228.239,353.7849367,0.645134873
DHOADS01,Nc1ncnc2c1ncn2C1C=CC(CO)O1,1.4209,175.742,272.4128163,0.645131174
IYATIL,COC(=O)C1(NC(=O)c2ccccc2)CC1Cn1cc(C)c(=O)[nH]c1=O,1.3733,278.593,431.8460504,0.645121102
GEJDAA,O=c1nc(-c2ccccc2)c2c3c(cccn13)CCCC2,1.3302,222.38,344.7115266,0.64511913
BAZFEQ,O=C1OC2=C(CN(Cc3ccccc3)C2=O)C(c2cccc3ccccc23)C1Cc1ccccc1,1.3206,372.492,577.4042303,0.645114775
MEWJUT,Cc1ccc(-c2c(-c3ccccc3)nc3oc4ccccc4c(-n4ccc5ccccc5c4=O)c2-3)cc1,1.3326,384.397,595.8622192,0.645110543
ENOROR,CCOC(=O)COc1ccc2ccccc2c1C1Nc2cccc3cccc(c23)N1,1.3564,314.463,487.4591186,0.645106406
TIYPOH,Oc1ccc(C2Nc3ccccc3-c3nc4ccccc4n32)cc1,1.3537,247.791,384.1099084,0.645104421
KIZVEV,COc1ccc(N2C(=O)C3(O)OCC(O)C23)cc1,1.4225,189.083,293.105382,0.64510245
TOVHOE,CC(C)c1ccc(O)c(C(=O)c2cnc3c(c2)c(=O)[nH]c(=O)n3C)c1,1.383,262.68,407.1914946,0.645101883
KUYKOH,O=C1C=CC(=O)N1c1ccc(CC2CCOc3ccccc32)cc1,1.3427,254.606,394.6764523,0.645100559
RAJJAO04,O/C(=C\c1ccccn1)Cc1ccccn1,1.3009,174.654,270.7394078,0.64510003
WUYJEI,COc1ccc(-c2cc(OC(=O)OC(C)(C)C)nc3c2nc2ccccn23)cc1,1.3602,308.06,477.5393428,0.645098681
JUXHOZ,O=CNn1ncc2ccccc21,1.3619,126.686,196.3833094,0.645095555
BAFLAX,CC1(C)OCc2c(CO)c(CO)nc(CO)c2O1,1.4009,195.075,302.4033,0.645082246
UNICUP,COCOC12C(=O)NC(CC1C(=O)OC)C1OC12,1.4462,190.43,295.2036715,0.645080053
FISXOU,CN1C(=O)NC(=O)/C1=C\c1ccccc1,1.3578,159.423,247.1383579,0.645075906
PEJCUD,COC(=O)c1cn(C(=O)/C=C/c2ccccc2)c2ccccc12,1.3267,246.349,381.8931816,0.645073051
OZALUY,c1nnnn1CCOCCn1cnnn1,1.4175,158.771,246.129337,0.645071416
POFQIL,CCOC(=O)C(=O)Nc1ccc(NC(=O)C(=O)OCC)cc1,1.3949,236.604,366.7877617,0.645070596
KECRES,CC1=NN(c2ccccc2)C(=O)C1(C)ON1C(=O)c2ccccc2C1=O,1.3782,271.341,420.6398554,0.645067263
AZTYMD,Cc1nn(C2CC(O)C(CO)O2)c(=O)[nH]c1=O,1.4578,178.62,276.9020548,0.645065636
NUDQOS,COc1ccc([N+]2=C(O)CC(C)([O-])C2(C)c2nc3ccccc3c(=O)[nH]2)cc1,1.3724,295.936,458.7742744,0.645057965
NIPYUH,COC(=O)c1[nH]c(C(=O)O)c(-c2ccccc2)c1-c1ccccc1,1.3499,254.801,395.0061777,0.645055734
WAFRIG,c1ccc2c3c(ccc2c1)Nc1ccc2ccccc2c1C3c1ccc2c(c1)OCO2,1.3506,318.148,493.2146497,0.645049777
JOTBAV,CCOC(=O)c1cc2c3c(cccn13)CC2,1.3349,172.598,267.5752044,0.645044822
ZAQROB,COC(=O)c1ccc(-n2c(N)c(C#N)c3c4ccccc4ccc32)cc1,1.3402,272.636,422.66672,0.645037773
VOXVUB,CCN1C(=O)C(C#N)=C(C)/C(=N/Nc2cccc(C)c2C)C1=O,1.3189,251.881,390.4946741,0.645030564
KEQJIA,COc1ccc(/C(C#N)=C/c2ccc(OC)c(OC)c2)cc1,1.2972,243.69,377.7965407,0.645029728
UTIKEP,O=c1oc2ccccc2cc1N1CCCCC1,1.3341,183.949,285.1814173,0.645024496
LONREM,Cc1cccc(OC(=O)C(Cc2ccccc2)NC(=O)OCc2ccccc2)c1,1.3284,313.792,486.4826808,0.645021935
KOJDAQ,COc1ccc2c(c1)CCc1c(C#N)c(C#N)c3c(c1-2)-c1ccc(OC)cc1CC3,1.3211,317.949,492.9289264,0.645019967
HUQWAU,COC(=O)C1(C(=O)OC)CC1n1ccc(=O)n(C(=O)c2ccccc2)c1=O,1.4046,283.752,439.9132877,0.645018025
PUZLED,CC(=O)N1C(=O)C(O)(CC(=O)c2ccccc2)c2ccccc21,1.3575,243.89,378.115388,0.645014743
WORLOH,O=C1/C(=C/c2ccccn2)C(c2ccccn2)Oc2ccccc21,1.34,251.074,389.2564472,0.645009227
VUKDEK,COc1ccc(/N=C/c2ccc(O)cc2)cc1,1.3028,186.706,289.4637246,0.645006556
BIZWEO,COC(=O)c1ccc(OCC#N)cc1,1.3278,154.121,238.9451111,0.645005873
IXEWEN,C#CCn1c(=O)n(CC#C)c(=O)n(CC#C)c1=O,1.3315,195.527,303.1413653,0.645002703
BEPPES,O=C1C=C2N(c3ccccc3)CC3CC23c2ccccc21,1.3106,223.203,346.051712,0.644998977
MCPCAM,CNC(=O)C1=C(C(=O)O)CCC1,1.3654,132.629,205.6277333,0.644995682
MOSLAI,c1ccc2cc(Oc3cnc4ccccc4n3)ccc2c1,1.3308,218.992,339.5257707,0.64499375
ABELID,O=c1o[n-][n+]2c1C(O)(Cc1ccccc1)c1ccccc1-2,1.3806,217.29,336.8888933,0.644990097
HINFIW,OCc1ccc(-c2cc(-c3ccccn3)nc(-c3ccccn3)c2)cc1,1.3326,272.576,422.6108146,0.644981128
GAZBOA,COC(=O)c1cnc(-c2ccn(C)c2)cc1C(=O)OC,1.3605,215.776,334.5554941,0.644963254
YEZHUJ,COc1ccc2c(c1OC)C13CCC4(C=O)COC2CC41N(C)C(=O)C3,1.3967,273.876,424.6409024,0.644959066
NAMPUP,CCOC(=O)c1cc(C#N)c2[nH]c3ccccc3c2c1,1.3354,211.805,328.4017155,0.644957045
WOPCEL,COc1cc(C)c2c(c1)OC1NC1(c1ccccc1)C2=O,1.3582,221.666,343.6925962,0.644954248
RIGZOZ,N#Cc1c2c(c(N3CCOCC3)[nH]c1=O)CCCC2,1.3565,204.595,317.2242734,0.644953798
XAVDAA01,Oc1ccccc1-c1cc(-c2ccccc2)cc(-c2ccccc2)n1,1.2944,267.36,414.5483329,0.64494289
AYAVIG,COC(=O)c1c(-c2nc(=[N+]3CCCCC3)nc(OC)[nH]2)[n-]oc1=O,1.4377,249.642,387.0801987,0.644936116
VIFBUK,CCOC(=O)C(=N/O)/C(=N\c1ccccc1)c1ccccc1,1.3144,241.277,374.1101515,0.64493572
AVUTOA,CCC(=O)NC1OC(CO)C(O)C(O)C1O,1.431,175.954,272.8276297,0.644927349
IJEZEC,COC(=O)C1=NNC(C(=O)OC)C(C(=O)OC)C1C(=O)OC,1.4423,234.709,363.932718,0.644924153
SOTPAU,C#CCC1OC(n2ccc(NC(=O)c3ccccc3)nc2=O)CC1[N-][N+]#N,1.3695,284.75,441.527274,0.644920522
MUKTAO,CN1C(=O)C2(C=CCC3OC32)c2ccccc21,1.3446,180.877,280.4650753,0.644918087
SACSUK,O=C1NC(O)(c2cnccn2)c2ccccc21,1.391,174.824,271.0794915,0.644917839
SINHUU,Cc1ccc(C#Cc2cccnc2)cc1-c1nnc(-c2cc(C#Cc3cccnc3)ccc2C)o1,1.2998,372.55,577.6758417,0.644911857
YAXGUZ,COC(=O)/C=C/c1nc(-c2ccccc2)c(-c2ccccc2)[n-][n+]1=O,1.3451,265.216,411.2442892,0.644911083
KOBXAD,Oc1ccccc1/C=N/N=C/c1c2ccccc2cc2ccccc12,1.3075,265.483,411.6589465,0.64491007
ZILQOA,O=C1N2CCCN3CCN(CCCN1CC2)C3=O,1.3829,195.275,302.7945724,0.644909182
SUZHAX,COc1ccc(Oc2cnccn2)cc1,1.3454,160.848,249.4161307,0.644898145
HMBFUR,CC1(C)C/C(=N\O)c2c([n-]o[n+]2=O)C1,1.4099,149.696,232.1236375,0.6448977
WEFLUQ,Oc1ccc2ccccc2c1/C=N/c1ccc(Oc2ccc(/N=C/c3c(O)ccc4ccccc34)cc2)cc1,1.3331,408.234,633.0219316,0.644897088
DZCDON,O=C1CCCC(=O)NCCCN1,1.3358,136.373,211.4667161,0.644891085
AFUSOM,c1ccc(C2=NCCO2)nc1,1.3345,118.815,184.2446748,0.644876169
MIBTUP,N#Cc1ccccc1NC(=O)c1ccccc1,1.295,183.645,284.7759899,0.644875293
IPONUZ,COc1ccc2c(c1)C=C(C)C1(C=Cc3c(c(-c4nc5ccccc5o4)cc4ccccc34)O1)O2,1.3643,360.397,558.8650625,0.644873019
IFAWUI,CN1C(=O)N(c2ccccc2)C(=O)C12OC(=O)c1ccccc12,1.3977,236.041,366.0278753,0.64487165
HODSOI,CCOc1ccccc1/N=N/c1ccc(O)c2ncccc12,1.339,234.419,363.5169067,0.644864092
KARKUL,C#CCNC1=C(C2C(=O)N(C)c3ccccc32)C(=O)N(C)C1=O,1.3516,244.905,379.7797376,0.644860628
YUQCOD,C/C(Nc1ccccc1N)=C1/C(=O)C=Cc2ccc(=O)oc21,1.3639,230.908,358.0784474,0.644853109
HOHGER,Cc1[nH]nc2c1C(c1ccncc1)C(C#N)=C(N)O2,1.3671,198.246,307.4331179,0.644842694
MIBTOJ,Cc1ccc(C2=Nc3ccccc3/C2=N\O)cc1,1.3111,192.827,299.0308105,0.644839907
YAHSIL,COc1ccccc1Oc1cnccn1,1.3486,160.45,248.8243083,0.644832497
VOXMON,CCN1C(=O)/C(=C/C(=O)c2ccccc2)Nc2ccccc21,1.3245,236.16,366.2487186,0.644807717
PUDGIH,O=C1/C(=C/c2ccc(N(c3ccccc3)c3ccccc3)cc2)Cc2ccccc21,1.2902,321.313,498.3116874,0.644803259
EVEVIL,O=C(OCCCCOC(=O)c1ccncc1)c1ccncc1,1.353,237.506,368.3402352,0.644800587
VAMBUH,O=C(N/N=C/c1ccc[nH]1)c1ccncc1,1.3367,171.49,265.9611854,0.644793336
QATZUH,COc1ccc(N2C(=O)C3(C)CC4CCC3(O4)C2c2ccccc2C=O)cc1,1.3526,298.569,463.0462763,0.644793005
MOFBOZ,COC(=O)N/N=C(\C)c1ccc(OC)cc1,1.3302,178.779,277.2665723,0.644791035
ATIQOJ,Cc1ccc(C(=O)Nc2cccc(NC(=O)c3ccc(C)cc3)c2)cc1,1.3019,283.045,438.973504,0.644788347
OYOSAY,Cc1cccc(C(=O)N/N=C2\C(=O)Nc3ccccc32)c1,1.3519,221.054,342.8321249,0.644787883
DOMVEJ,NC(=O)C12CC3(C(N)=O)CC(C(N)=O)(C1)CC(C(N)=O)(C2)C3,1.4314,230.505,357.4900968,0.644787092
JUPJOV,COC1=CC(=O)O/C1=C\c1ccc(N(C)C)c2ccccc12,1.3318,237.269,367.981433,0.644785249
UHUSUM,OC1(c2cccnc2)c2ccccc2-c2ccccc21,1.3136,211.195,327.5433809,0.64478482
TOCBIZ,CC(O)C(CO)Nc1c(C(N)=O)cnn2cc(-c3ccccc3)cc12,1.3596,267.88,415.4596715,0.644779791
NUQPUL,CC1(C)CC(=O)C(=NNc2cccc(C#N)c2)C(=O)C1,1.3188,218.49,338.8646787,0.644770653
YUVKEH,O=C1CCC23OC=CC2C2(Nc4cccnc4N(Cc4ccccc4)C2=O)c2ccccc2N13,1.3849,348.035,539.7869577,0.644763633
FAVZIO,CN1CCC23C(=O)Nc4ccccc4C12C(=O)OC3c1ccncc1,1.3898,258.18,400.4258756,0.644763527
RACTUM,CC(=O)c1ccn2c1ccc1ccc(/C=C/c3cccnc3N(C(C)=O)C(C)=O)nc12,1.343,328.575,509.6218684,0.64474274
AROZOX,N#CC(/C=C1\Nc2ccccc2C1=O)=C(/N)NCc1ccccc1,1.2989,260.582,404.1646639,0.644742164
RESJUV,COc1ccc(O)c(C2=NNC(c3ccc(O)c(OC)c3)C2)c1,1.3665,246.119,381.733426,0.6447405
ZZZLXE02,O/N=C(C(=N/O)/c1ccccc1)\c1ccccc1,1.3181,195.018,302.4757232,0.644739346
ROKTOA,COC(=O)C1(C#N)C(c2ccc(C#N)cc2)=CC2=CC=CC=CC21,1.2981,259.068,401.8208454,0.644735093
ZETPET10,COC1=CC(=O)N(C)C(=O)C1(O)CC(C)=O,1.3926,174.581,270.7798405,0.644734112
SUQPAV,COc1cc2c(cc1OC)C1N(CC2)C(=O)c2ccccc2C12OC(=O)c1ccccc1C2=O,1.397,348.804,541.0166895,0.644719482
YUTPEL,O=C1C=C(Nc2ccc(O)cc2)c2ccccc2C1=O,1.3589,208.84,323.925018,0.644717105
HIBHUV,COc1ccc(-c2cc(=O)cc(N)[nH]2)cc1,1.3435,172.198,267.0925573,0.644712836
PESHUQ,COc1cc2c(=O)n(C)ccc2c(OC)c1OC,1.3607,195.993,304.0020866,0.644709391
JITXOA,COc1c2c(cc3c1C1NC4c5c(cc6c(c5OC)OCO6)CCN4N1CC3)OCO2,1.4499,313.935,486.9429016,0.644705979
CEGWUI,O=C1CCC2C(O)c3occc3CN12,1.41,146.597,227.3890122,0.644696939
REWXID,CC12CCC=C1NC(=O)C(C#N)C2(C#N)C(N)=O,1.3592,192.264,298.2238524,0.644696923
SAHNEV,c1ccc(-c2nc3c(-c4ccccc4)c4oc(-c5ccccc5)nc4c(-c4ccccc4)c3o2)cc1,1.3288,373.956,580.0508766,0.644695173
SAWDIF,COc1ccc2c(c1OC)CC(CC#N)NC2=O,1.346,195.743,303.6213926,0.644694362
QAPVOV,COC(=O)c1ccc2c(ccn2-c2cccc3cccc(NC(=O)c4ccccn4)c23)c1,1.3491,334.191,518.3822329,0.64468066
DUBPUL,O=c1c2ccccc2c(=O)n2n1C1CCC2C1,1.391,175.543,272.2976642,0.644673176
EVAYAE,CCCCN1C(=O)c2cccc3c(-c4c5ccccc5cc5ccccc45)ccc(c23)C1=O,1.3195,348.198,540.1170769,0.644671341
PUBJOM,O=C1CCC(O)(C2(O)CCC(=O)N2)N1,1.4463,148.095,229.7257562,0.644659974
KUBVOS,Cc1cc(=O)n(-c2ccccn2)[nH]1,1.3475,139.088,215.7542245,0.644659451
CHEXOX10,ON=C1CCC(=NO)CC1,1.354,112.329,174.2455408,0.644659252
CEJSOZ,NC1=NC(=O)CC1c1ccccc1,1.3218,140.986,218.6988252,0.644658241
ELIGEL,CCOC(=O)c1ccc(N2C(=O)C=CC2=O)cc1,1.3644,192.283,298.2712272,0.644658226
FEPTOJ,O=C1c2ccccc2-n2c(nc3ccccc3c2=O)C2CC3(O)c4ccccc4NC3N12,1.4037,321.938,499.3960112,0.644654729
IDEVUJ,c1ccc2c(c1)COc1ccccc1Cn1nncc1CO2,1.3639,230.063,356.8803712,0.644650193
ZAQFII,CCOC(=O)c1cc2cc(C(=O)c3ccccc3)cn2cc1C,1.3216,248.77,385.8995707,0.64464959
TAJWUW01,COc1nc(Nc2ccccc2)nc(OC)n1,1.3788,180.197,279.5319555,0.644638284
ULUVII,COc1cc(/N=N/c2ccccc2)cc(/C=N/N)c1O,1.343,215.298,333.989165,0.644625702
AFIGAY,O=C1c2ccccc2C(=O)N1c1ccccc1N1C(=O)c2ccccc2C1=O,1.3833,284.838,441.8659447,0.644625374
NOHWEP,COC1=CC(/N=N/c2ccccc2)=C/C(=C/NCCN/C=C2/C=C(/N=N/c3ccccc3)C=C(OC)C2=O)C1=O,1.3393,428.582,664.8564831,0.64462333
REBVAW,N#CCC1C(=O)Nc2ccccc21,1.3149,140.076,217.3008735,0.644617749
VICGOD,O=C1CN2Cc3cnn(-c4ccccc4)c3N=C2N1Cc1ccccc1,1.3611,269.868,418.6494606,0.644615664
HULKAA,O=C1/C(=C/c2c[nH]c3ccccc23)Cc2ccccc21,1.3115,211.477,328.0678499,0.644613607
TERDOJ,O=C(O/N=C(/c1ccccc1)n1nnc2ccccc21)c1ccccc1,1.3457,272.131,422.1673841,0.644604511
OLEQUS,CN1CCC(C(=O)Nc2ccccc2)(C(=O)Nc2ccccc2)C1=O,1.338,269.721,418.4297986,0.644602753
BUFSIF,Cn1c2c(c(=O)n(C)c1=O)C1=C(C(=O)c3ccccc3)CCN1C(c1ccccc1)=N2,1.3684,322.405,500.162357,0.644600689
NIRKUX,O=C1c2ccccc2-c2ccc(-c3ccccc3)n21,1.3136,199.713,309.8253628,0.644598616
SODXER,Cc1nc2ccccc2c(=O)n1CCCN(C)CCCn1c(C)nc2ccccc2c1=O,1.3191,349.934,542.873222,0.644596171
HEPPEA,Cn1cc(-c2c3ccccc3cc3ccccc23)n(C)c1=O,1.3131,234.875,364.3762643,0.644594676
MENDAL,CCOc1ccc(/N=N/c2ccc(O)c3ncccc23)cc1,1.3366,234.74,364.1696381,0.644589706
NUMMOA,O=C(c1ccc2ccccc2c1)c1oc2ccccc2c1Nc1ccccc1,1.3162,295.313,458.1423168,0.644587913
EXUBIJ01,O=c1c(O)c(-c2ccccc2)[nH]c2ccccc12,1.3437,188.859,292.9920011,0.644587563
CEVVAA,COC(=O)C12C=CC(OC)N1C(=O)N(c1ccccc1)C(=O)N2,1.4153,239.826,372.0611911,0.644587519
GOLKAU,O=C1C2C3CCC(O3)C2C(=O)N1c1ccccc1,1.3871,187.588,291.0204712,0.644586957
ARUBEV,COc1cccc(C(=O)C(Cn2nnc3ccccc32)OC(=O)c2cccnc2)c1,1.3671,314.857,488.465903,0.644583374
FUZDOU,COC(=O)c1cc(OC)c(OC)cc1C(Oc1ccccc1C#N)C(=O)OC,1.3701,300.873,466.7716823,0.644582804
XULSOO,CC1=C/C(=C/Nc2ccccc2O)C(=O)C=C1,1.3119,185.289,287.4558583,0.644582445
AWOWEO,CC(=O)N1N=C(c2ccccc2)NN=C1c1ccccc1,1.3322,223.46,346.675194,0.644580298
NANMEU,CC1(C)OC2C=CC(N3C(=O)c4ccccc4C3=O)C(O)C2O1,1.3977,241.318,374.3813286,0.644578085
SUYKOM,Cc1[nH]c2ccccc2c1C1(C)Nc2ccccc2C1=O,1.3173,224.369,348.087203,0.644576985
CXPAMP,CC(=O)n1c(=O)cc(C)n1-c1ccccc1C(=O)O,1.3879,200.58,311.1811811,0.644576254
BIYZUH,C/C(=N\c1ccccc1N)c1ccc(O)cc1O,1.3257,195.475,303.2665303,0.644565029
SAJFUI,O=C1Oc2ccccc2C(=O)C12Cc1ccccc1N1CCc3ccccc3C12,1.3658,298.693,463.4025927,0.644564801
NERNOQ,c1coc(-c2nc3ccc4ccccc4c3c3c2CCCC3)c1,1.319,242.743,376.6011843,0.644562498
OZIHUB,CC(=O)C1=C(C)N(Cc2ccccc2)C2(O)c3ccccc3C(=O)C12O,1.3492,276.975,429.7121378,0.644559405
LIMCIW,COC(=O)C1c2ccccc2-c2c(-c3ccccc3)c3ccccc3c(=O)n21,1.345,292.154,453.2645892,0.644555094
OWACAS,O=C(Nc1cccc2cccc(N3CCOCC3)c12)c1ccccn1,1.3457,264.979,411.1058299,0.644551794
BEPNUG,COc1ccc(N2CC3CC34C2=CC(=O)c2ccccc24)cc1,1.3261,244.663,379.5874499,0.644549761
UGOQEM,N#Cc1ccc(C(=O)C2=CC(C3(c4ccccc4)CCCCC3)=C/C2=C(/O)c2ccc(C#N)cc2)cc1,1.2912,399.717,620.1520835,0.644546734
LEGPES,O=C1c2ccccc2CN2C(=O)CCC12,1.3546,158.882,246.5021054,0.644546219
YUYYUM,CC1(C)N=c2c(ncn2-c2ccccc2)=C(C(N)=O)N1,1.3584,212.055,328.9998472,0.644544372
JOWVAS,O=C(NCO)c1ccccc1,1.3254,121.991,189.2679669,0.644541187
KUYRUT,CCOC(=O)c1c(C)n(Cc2ccccc2)c(=O)n2c1cc1cc(C(=O)OC)ccc12,1.361,328.846,510.2018068,0.644541034
WOGFAZ,N#[N+][N-]C1CC/C=C\C(CO)NC1=O,1.3571,154.657,239.9506743,0.644536634
JEVNII,COc1ccccc1Oc1ccc(C#N)c(C#N)c1,1.3075,204.708,317.6086136,0.644529119
FULREM,Cc1ccc(-c2c3n(c(=O)n(Cc4ccccc4)c2=O)-c2ccccc2C3=O)cc1,1.3451,313.613,486.5773337,0.644528584
BUHGOA,[NH3+]C(CCO)C(=O)[O-],1.3685,93.115,144.4706749,0.644525265
ISUTEW,O=C1NC(=O)C(O)(Cc2ccccc2)n2cccc21,1.3806,198.527,308.0214444,0.644523307
VOYDES,COC(=O)C1=C(OC)C(OC)=C(C#N)/C1=N/Nc1ccccc1,1.3548,247.353,383.7793392,0.644518802
SIZHIU,COC(=O)c1c(-c2ccccc2)c2c(n1C)-c1ccccc1OC2C,1.338,266.481,413.4577437,0.644518101
JUMCAX,NC(=O)C1CC(C(=O)c2ccccc2)=NO1,1.3673,170.698,264.84723,0.644514953
KICWAX,N#CC1(C(N)=O)CC(c2ccccc2)=C2C(=O)CCCC21,1.3213,226.904,352.0542101,0.644514377
KABLAA,CCN(CC)c1ccc(/N=C2\C=CC(=C(C#N)C#N)c3ccccc32)c(NC(C)=O)c1,1.2905,339.357,526.541144,0.644502341
SIKDEX,O=C1c2ccc3c4c(ccc(c24)C(=O)N1C1CCCCCC1)C(=O)N(C1CCCCCC1)C3=O,1.3684,358.385,556.0662509,0.644500542
FESXEH,COc1ccc(Cn2c(-c3ccc(OC)cc3)nc3ccccc32)cc1,1.3145,280.206,434.7657701,0.644498761
XEHTEL,OC1c2cccnc2-c2ncccc2C1Oc1ccccc1,1.3507,229.868,356.6663502,0.644490291
MEFFOU,c1ccc(Oc2ccc(-c3ccnc4c(-c5ccc(Oc6ccccc6)cc5)ccnc34)cc2)cc1,1.3178,378.591,587.4326857,0.644484056
TEBMIX,Cc1cccc(/C(O)=C(\O)c2cccc(C)n2)n1,1.3242,195.669,303.6100583,0.644474696
ATAXAV,COC(=O)/C(CC1(C(=O)OC)CC12C(=O)N(C)c1ccccc12)=C1/C(=O)N(C)c2ccccc21,1.3673,360.177,558.8732558,0.644469916
MITSOA,COc1ccc(-c2c[nH]nc2-c2ccccc2O)cc1OC,1.3437,235.843,365.9525064,0.644463409
HUGKAY,COc1cc2c(=O)c3ccccc3c3noc(-c4ccccc4)c3c2cc1OC,1.3574,302.053,468.6916368,0.644459974
XUSTUD,C#CCOc1ccc(C(=O)/C=C/c2c(C)nn(-c3ccccc3)c2Oc2ccc3ccccc3c2)cc1,1.3052,396.998,616.0183398,0.644458086
HOZBUU,CN1C(c2ccccc2)COC(=O)N1C(=O)COc1ccccc1,1.3617,256.308,397.7130989,0.644454509
ZUPPEH,Cc1ccc(-c2cccc3cccc(NC(=O)c4ccc5ccccc5n4)c23)cc1,1.3021,319.018,495.0268409,0.644445864
XOPPUQ,Cc1c(C(=O)c2c(C3CC3)nn(C)c2O)oc2ccccc12,1.3534,234.144,363.3296756,0.644439515
ANIQUM,CC(O)Cn1cnc2c(N)ncnc21,1.3885,148.824,230.9368494,0.644435916
WARXUI,O=C(O)CNC(=O)NC(Cc1ccccc1)C(=O)O,1.3924,204.507,317.3437984,0.64443358