name,smiles,Density,Vint,Veff,pc
HOPJAZ,Cc1ccc(C(=O)c2c3c(c4c5ccccc5cnn24)C(=O)c2ccccc2C3=O)cc1,1.4373,328.265,480.7641988,0.682798346
UFIXEM,N#CCc1cc(-c2ccccc2)no1,1.3669,152.682,223.6126407,0.68279682
YUBZEA,COC(=O)c1cccc(-c2nc(C(=O)OC)ccc2N)n1,1.4634,222.435,325.7774089,0.682782151
JEHWIC,O=C1CC2N(O)C3C(O)C(CO)OC3N2C(=O)N1,1.6003,183.545,268.8426987,0.682722651
ELERUK01,COc1ccc(C(=O)N/N=C/c2ccc(C(=O)O)cc2)cc1,1.4344,235.608,345.1039805,0.682715973
HAFTUF,O=C(Nc1ccccn1)C(=O)c1cn2ccccc2n1,1.4559,207.196,303.4913605,0.682708067
PYRIDO,O=c1cccc[nH]1,1.3863,77.719,113.8416152,0.682694109
BOPMAU,O=C(NNC(=O)c1ccccn1)c1ccccn1,1.4429,190.201,278.6046653,0.682691368
ULIBOH,O=C1c2ccccc2C2(O)C(=O)c3ccc4ccccc4c3N12,1.4616,233.525,342.0657547,0.68269038
TOQBAE,Cc1ccc(-c2nc3c(N)n4ncnc4nc3o2)cc1,1.4939,201.908,295.7840055,0.682619737
VOMZAZ,O=C1NC2C(O)C(O)C(O)C(O)C2c2cc3c(cc21)OCO3,1.5792,221.857,325.0166571,0.682601938
ACDHAL,C=C(NC(C)=O)C(=O)O,1.4355,101.892,149.2776942,0.682566813
AMIPET,O=C(O)c1ccc(-c2nc(-c3cccnc3)n[nH]2)cc1,1.4549,207.293,303.6999599,0.682558536
RELVIN,O=C(CCC(=O)Nc1ccccc1O)Nc1ccccc1O,1.4404,236.158,345.9902376,0.682556831
HANNAL,COc1cc2ccnc3c2c(c1OC)-c1ccc(O)c(=O)cc1-3,1.4627,237.944,348.6322902,0.682507062
WEZLUL,N#Cc1ccc(NC(=O)c2ccccc2)nc1,1.3857,182.452,267.3288716,0.682500169
PUDNIO,O=c1oc2ccccc2cc1/N=C/c1c(O)ccc2ccccc12,1.4333,249.151,365.0580448,0.682496944
CIQKIX,c1cnc(Oc2ccc(Oc3cnccn3)cc2)cn1,1.457,206.961,303.2622317,0.682448978
WUDPUJ,O=C1CCC(=O)N1C(=O)C(=O)N1C(=O)CCC1=O,1.5644,182.576,267.5368797,0.682433017
XIPHOU,COc1ccc(NC(=O)C2=C(O)c3ccccc3C2=O)cc1,1.447,231.075,338.6435734,0.6823546
AXUQOC,O=c1nc(-c2ccccc2)nc(-c2ccccn2)[nH]1,1.4362,197.303,289.1602259,0.682331048
KABWUF,Cc1c2[n-]o[n-]c-2c(C)[n+](=O)[n+]1=O,1.5407,133.88,196.2109755,0.682326764
EYIKED,N#CC12C(=O)c3ccccc3OC1C1C=CC2CC1,1.4224,200.016,293.1437995,0.682313596
LUDJAY,N#CC12C(=O)C3C4C=CC(C4)C3C(=O)C1(C#N)C1C=CC2C1,1.4288,230.051,337.1705203,0.682298677
GITWUC,CC(=O)/C(=N/Nc1ccc(C(=O)Nc2ccc(C(N)=O)cc2)cc1)C(=O)Nc1ccc2[nH]c(=O)[nH]c2c1,1.4757,383.242,561.7034547,0.682285282
WANPAC,CC(=O)c1cc2c(cc3cccc(C)n32)oc1=O,1.4454,188.962,276.9664502,0.682255919
IDUSAC,Nn1c(-c2cccc(C(=O)O)c2)nnc1-c1cccc(C(=O)O)c1,1.481,247.922,363.3875561,0.682252311
QEDXAB,N#CC1=C(N)N2C(=O)NC(=O)C2C12C(=O)Nc1ccccc12,1.5218,219.673,321.983268,0.682249737
XAGWIM,O=C(O)c1ccc[nH]1,1.4567,86.352,126.573616,0.682227488
JEYBUK,O=C(O)Cc1c[nH]c2ccc(O)cc12,1.4646,147.788,216.6266001,0.68222462
BESZOO,O=c1[nH]cnn1C1OC(CO)C(O)C1O,1.5817,155.465,227.8979749,0.682169291
OKAJOB,O=C(N/N=C/c1ccccc1O)c1cccc(C(=O)N/N=C/c2ccccc2O)n1,1.4526,314.379,460.8525722,0.682168266
ZUZXAT,Nc1nc2c(ncn2C2COC(CO)C(O)C2)c(=O)[nH]1,1.5465,205.914,301.8527372,0.682167079
DETZEH,O=c1c(-c2nc3ccccc3[nH]2)coc2ccccc12,1.4486,204.931,300.4283187,0.682129438
AMOADA,Nc1ncnc2c1ncn2C1OC(CO)C(N)C1O,1.5392,195.82,287.1016199,0.682058151
DIDXUL,O=C1N=C2C=CC=CN2/C1=C/c1ccccc1,1.3956,180.215,264.2482854,0.68199118
LOSJUZ01,O=C(O)/C=C\C(=O)Nc1ccccc1,1.4235,152.002,222.8811511,0.681986786
EVIGIA,COC(=O)c1ccc(C(=O)Nc2ncccn2)cc1,1.4461,201.322,295.2127215,0.681955707
ETIMQO10,O=C1C=C(N2CC2)C(=O)C=C1N1CC1,1.4022,153.498,225.1014565,0.68190585
OXATIS,c1coc(-c2nn3c4c(cccc24)OCC3)c1,1.4627,175.018,256.661559,0.681901882
BOSBIW,O=C1/C(=C2\Nc3ccc(-c4ccccc4)cc3C2=O)Nc2ccc(-c3ccccc3)cc21,1.4107,332.417,487.4995507,0.681881654
MURDOS,CC(=O)Nc1cc2ccccc2oc1=O,1.4547,158.057,231.7993529,0.681869893
SUDVUL,O=C1C=CC(=O)N1Cc1ccc2ccc3cccc4ccc1c2c34,1.4232,247.51,362.987451,0.681869302
DILHIQ,COc1ccc(/C=N/NC(=O)c2ccccc2O)cc1O,1.4445,224.26,328.8957769,0.681857341
FARYEC,CC(=O)NC1C(O)OC2C(O)C(=O)NC12,1.554,157.434,230.8967288,0.681837291
WAQQOX,COc1cccc2cc3c4c(cccc4c12)C(=O)N3C,1.4226,209.396,307.1101788,0.681826961
BUFCAI,CN(C)c1nc(=O)n2nc[nH]c2n1,1.5224,133.923,196.4228438,0.681809699
MUYCEO,CC1=C(O)/C(=N/O)c2ccccc2C1=O,1.4514,158.399,232.3263873,0.681795132
YOJCUX,Oc1cc(-c2ccncc2)nn1-c1ccccn1,1.4361,187.701,275.3044471,0.68179429
AYUNOY,C#CCn1cc(C=O)c(=O)[nH]c1=O,1.4499,139.023,203.9103667,0.681784856
QEPMEE,Cc1cccc(NC(=O)CCC2=CC3OC2C2C(=O)N(CC(=O)O)C(=O)C32)n1,1.4814,294.333,431.7149561,0.681776241
BICGUS,C/C(=N\NC(=O)c1ccco1)c1ccc2c(c1)OCO2,1.4703,209.502,307.2948115,0.681762243
EDUXIL,O=c1ccccn1-c1cnccn1,1.4325,136.771,200.6154478,0.68175707
PAHQUN,Oc1cccc2ccc(Nc3ccccn3)nc12,1.4184,189.238,277.5747363,0.681755128
OCODIT,OC1Cn2ccnc2C(O)C1O,1.5149,127.094,186.4260463,0.681739502
AZAHIT,O=C(c1ccccc1)n1ccc(-c2ccccn2)n1,1.3907,202.769,297.4323766,0.681731432
LUKWOF,O=C(Nc1ccc(C(=O)O)c(O)c1)c1ccccc1,1.4556,199.932,293.2731948,0.68172613
QOKWOD,O=c1oc2ccccc2c2c1cnc1nc3ccccc3n12,1.4846,218.894,321.1016925,0.681696812
GALDEC,Cc1c(O)c(=O)ccn1C,1.4073,111.861,164.0933442,0.681691269
PILNAA,O=C(N/N=C/c1ccc2c(c1)OCO2)c1ccncc1,1.461,208.489,305.8414213,0.681689874
YOVZEP,O=C(N/N=C/c1cccnc1)c1ccncc1,1.4073,181.859,266.7785948,0.681685126
JULGIJ,COc1cc(/N=C/c2c(O)ccc3ccccc23)cc(OC)c1,1.4001,248.306,364.2631759,0.681666489
QAJZUZ,C/C(=N\NC(=O)c1ccccn1)c1cnccn1,1.4205,192.121,281.8476701,0.681648353
EYIVEN,OCC1OC(n2ncc3c2nnn2ccnc32)C(O)C1O,1.5628,211.556,310.371116,0.681622706
SODQUZ,O=C(O)c1ccccc1-n1cc(CO)nn1,1.4766,167.924,246.3621345,0.681614487
DOXQUD,O=C1c2ccccc2NC(c2ccco2)N1/N=C/c1ccco1,1.4542,239.02,350.6829218,0.681584375
CIKXOK,O=C(O)/C=C/c1cccnc1,1.3961,120.831,177.2857065,0.681560868
BIMGUC,O=C1C=CC(=O)c2c1cccc2-n1cc(-c2ccccc2)nn1,1.4295,238.355,349.7600289,0.681481531
CIZZIW,O=C(O)c1ccccc1-c1cc(-c2cnccn2)nc(-c2cnccn2)c1,1.4411,278.857,409.1947533,0.681477457
HOTNAF,COC(=O)c1onc2ncn(C)c12,1.5055,136.09,199.70079,0.681469512
WIWCAH,O=C(O)c1ccc2ncccc2c1,1.4334,136.618,200.4764719,0.681466502
DEFXOB,O=c1ccn(CCO)c(=O)[nH]1,1.4952,118.104,173.3162313,0.681436465
AXAFAH,COc1cccc(/C=N/NC(=O)CC#N)c1O,1.4245,185.148,271.7112787,0.681414481
OQODAB,O=C1C=CC(=O)N1CCN1C(=O)C=CC1=O,1.4833,167.867,246.3509635,0.681414018
ZAVWAU,O=C1NC(=O)/C(=C/c2ccccn2)N1,1.4733,145.196,213.0881588,0.681389341
OBUZUI01,O=C(O)c1cc(Cn2cnc3ccccc32)cc(C(=O)O)c1,1.4636,228.9,335.9319221,0.681388058
TELBOD,Nc1ncnc2c1ncn2C1OC2(CO)COCOC1C2O,1.5801,221.346,324.8551442,0.681368308
KINKAW,N#[N+][N-]C1C2OCC1(CO)OC2n1ccc(=O)[nH]c1=O,1.5706,202.489,297.1825011,0.68136246
AGESUD,O=C(c1nc2ccccc2o1)c1nc2ccccc2o1,1.4786,202.059,296.5556804,0.681352654
JABNIN,O=C1NC2Cc3oc4cccc(O)c4c(=O)c3C1(O)C2O,1.5712,208.154,305.505838,0.681342135
WUQWEM,COc1ccc(-c2nnc(-c3ccccn3)n2N)cc1,1.4358,210.488,308.933141,0.681338361
RACGIO,O=C(O)/C=C(/C(=O)[O-])[n+]1ccc(Cc2ccccc2)cc1,1.4213,225.349,330.7465353,0.681334423
WOCFIG,N#CC1=C(O)N(C(=O)c2ccccc2)/C(=C\c2ccccc2)C1=O,1.4037,254.769,373.9334658,0.681321741
JOBLER,O=C(NC(Cc1c[nH]oc1=O)C(=O)O)c1ccccc1,1.4786,211.244,310.0564834,0.681308121
XILZEY01,O=C(NNC(=O)c1cc2ccccc2cc1O)c1ccccc1,1.4329,241.684,354.7424066,0.681294357
NUZSIM02,O=C(O)Cn1c(=O)oc2ccccc21,1.5119,144.444,212.0233384,0.681264624
VORLIY,COc1ccc(-c2c3c(nc4onc(C)c24)COC3=O)cc1,1.4785,226.524,332.5464736,0.681179979
MUVFAL,O=C(CC(=O)n1cccn1)n1cccn1,1.4544,158.712,232.9963443,0.681178069
GEKQEU,Cc1c[nH]c2nc3c(cnn3-c3ccccc3)c(=O)n12,1.4691,204.102,299.6521785,0.681129705
SEWFAD,O=c1c(NC2c3ccccc3CC2O)c(NC2c3ccccc3CC2O)c1=O,1.4449,294.448,432.2942177,0.681128703
ARBIMC10,NC(=O)c1ncn(C2OC(CO)C(O)C2O)c1N,1.5497,188.372,276.5663769,0.681109548
KABJEE,O=C(O)c1ccccc1/N=C/c1ccc2c(c1)OCO2,1.4604,208.387,305.9543018,0.681104985
VODWEQ,Nc1cc(N)cc(C(=O)O)c1,1.4488,118.707,174.2880134,0.681096753
EHLYCO,O=C1c2cc3c(cc2C2C4OC4C(O)C4CCN1C42)OCO3,1.5391,221.258,324.8641378,0.681078563
EMAGIL,Oc1ccc(/C=N/n2cnnc2)cc1,1.431,148.642,218.245093,0.681078314
XIMCOL,N#CC1(C2NC23CCOC3=O)CCOC1=O,1.4944,168.063,246.760956,0.681076142
UFIXAI,N#CCc1cc(-c2ccc3c(c2)OCO3)[nH]n1,1.446,177.603,260.7687225,0.681074779
INICAC,NNC(=O)c1ccncc1,1.419,109.234,160.3946646,0.681032628
ZABSEA,Cc1nnn(C2CC(n3cc(C)c(=O)[nH]c3=O)OC2CO)n1,1.5209,229.113,336.4255092,0.681021485
FETWOQ,O=C1C2CC(O)C(O)C2C1N1C(=O)CCC1=O,1.5113,178.901,262.6978138,0.681014423
PATXAJ,NN1C(=O)CC2CC(=O)N(N)C21,1.5256,126.073,185.1307497,0.68099438
FIWZAM,Cn1ncnc2n(C)c(=O)nc1-2,1.5019,124.283,182.5068503,0.680977179
YIBZEO,Cc1noc(NC(=O)c2ccccc2)c1C(=O)[N-][N+]#N,1.4693,208.624,306.3633957,0.680969081
GAGGIF,O=c1ccc2nn1CC#Cc1ccccc1C#CCO2,1.4073,210.586,309.2449814,0.680968205
DOMSUT,COC(=O)/C(C=O)=C\N1C(=O)c2ccccc2C1=O,1.4739,198.747,291.8618827,0.680962509
HIQSAB,CN(C)C1=CC(=O)c2cc(O)ccc2C1=O,1.4301,171.626,252.0613293,0.680889847
ALUNOL,N#[N+][N-]C1C(ON2C(=O)c3ccccc3C2=O)OC(CO)C(O)C1O,1.5456,256.106,376.1343327,0.680889719
QADMOB,N#CC1=C(N)N2C(=O)NC(=O)C2C1c1ccccc1,1.4599,196.782,289.0101182,0.680882736
HQUINO11,[O-][n+]1cccc2cccc(O)c21,1.4475,125.796,184.7570119,0.68087267
NICOAM02,NC(=O)c1cccnc1,1.4015,98.458,144.6114378,0.680845177
FEZRUX,CC1=NNc2nc(-c3ccccc3)cc(=O)n2N1,1.4612,186.542,273.9971361,0.680817335
IJEWID,CN1CCc2cn(C)c3c2C1=CC(=O)C3=O,1.4399,169.667,249.2109526,0.680816787
DIBGEA,COC(=O)c1c[nH]cn1,1.4569,97.807,143.6659244,0.680794701
COZFOM,O=C(ON1C(=O)c2ccccc2C1=O)c1ccccc1C(=O)ON1C(=O)c2ccccc2C1=O,1.5128,340.815,500.6161965,0.680790998
BOVCOF01,O=C(O)c1cccc(-c2ccncc2)c1,1.4006,160.662,236.0163954,0.680723895
RAVQEL,N#Cc1ccc(CN2C(=O)c3ccccc3C2=O)cc1C#N,1.4055,230.883,339.172944,0.680723519
XOBJAC,COc1c(C(=O)Nc2cccnc2)cccc1C(=O)Nc1cccnc1,1.4283,275.512,404.7411554,0.680711601
GUGJOI,COC(=O)NCc1occc1NC(=O)N1C(=O)N(C(=O)OC)Cc2occc21,1.5476,286.392,420.7262654,0.680708631
AYENIC,O=c1c2ccccc2nc2n1CCC2O,1.4641,156.015,229.1950429,0.68070844
WEYZUX,COC(=O)C1=NOC2C(=O)N(C)C(=O)C12,1.5386,155.783,228.8568436,0.680700641
BOYMAD,CC(=O)c1nc2ccccc2c(=O)[nH]1,1.4447,147.132,216.1625762,0.68065436
NEBULR,OCC1OC(n2cnc3cncnc32)C(O)C1O,1.5384,185.212,272.1098353,0.680651619
FADXOA,[O-][n+]1cccc2ccccc21,1.3881,118.107,173.5282903,0.680621009
UMOTUM01,Cc1nc2ccccc2c(=O)n1O,1.4507,137.139,201.5322767,0.68048157
NOSKOV,N#CC1C(C#N)C1(C#N)C(N)=O,1.3791,131.117,192.7053519,0.680401445
WOLGOV,O=C1CC2C(=O)CC1C1C(=O)NC(=O)C21,1.535,152.405,223.995097,0.680394357
JOCLOE,O=Cc1ccc(CO)n1C1CC(=O)NC1=O,1.5009,167.154,245.6922998,0.680338782
CASQUJ01,O=C(N/N=C/c1ccc(O)cc1)c1ccncc1,1.4095,193.236,284.0340271,0.680326938
ZIXWUY,COC1=C(OC)C(=O)c2c(cc3c([nH]c(=O)n3C)c2-c2ccc(OC)cc2)C1=O,1.4774,301.371,442.9875709,0.680314799
PENMUQ,O=C(O)/C(O)=C/c1c[nH]c2ccccc12,1.4518,158.011,232.2623768,0.680312508
UFIYUD,O=C1NC2COC(=O)C2N1,1.5786,101.645,149.4159638,0.680282062
GUXKOZ,CNC(=O)C(O)C(O)C(O)C(O)C(=O)NC,1.502,177.567,261.031324,0.680251693
BECXAI,CC(=O)c1cnc2cnccn12,1.4281,127.397,187.2799027,0.680249179
UVEXUR,CC1=C(c2ccccc2)NC(=O)C1=C(C#N)C#N,1.3686,194.026,285.2292982,0.680245687
ZAPGII,Nc1nnn(CC(=O)O)n1,1.5671,103.106,151.5789708,0.680213089
MUDNUW,CC1=C(NC(=O)c2cccnc2NC2CC2)C(=O)NC1=O,1.45,222.878,327.6611062,0.680208898
LANGOZ,O=C1c2ccccc2C(=O)C1(O)c1ccc(O)c2ncccc12,1.4638,235.404,346.0836606,0.680193915
FAJWIW,COc1nc(OC)[nH]c(=O)n1,1.5297,115.963,170.4877685,0.680183693
WOQJUH,COC(=O)c1nnc(C(=O)OC)c2c1C1C3C2C13,1.48,187.791,276.090522,0.68017909
BEBMAX,COC(=O)c1ccc(-c2nnc(-c3ccc(C(=O)OC)cc3)o2)cc1,1.4544,262.561,386.023587,0.680168282
ERIVAC,O=NN1CCC1C(=O)O,1.5056,97.551,143.4251066,0.680152885
NUJDUT,Oc1ccc2ccc3cccnc3c2c1O,1.4429,165.21,242.9078685,0.680134411
YAMZIW,O=C1C(O)=CC=C/C1=C/Nc1ccccc1O,1.4311,180.786,265.809592,0.680133469
GAPTOJ,O=C(Nc1ccccc1C(=O)O)c1cccc(C(=O)Nc2ccccc2C(=O)O)n1,1.4766,309.842,455.5753482,0.680111427
LALTRE11,CC(O)C([NH3+])C(=O)[O-],1.4483,92.841,136.5104734,0.680101663
GAFNUW,CC(=O)O[C@H]1C[C@H]2C[C@@H]1C1=CC(=[N+]([O-])[O-])[N+](=O)C=C12,1.5115,197.313,290.1239275,0.680099024
AMBNAC17,Nc1ccc(C(=O)O)cc1,1.417,109.226,160.6078863,0.680078684
ATONIH,Cc1nc2c(O)cccn2c(=O)c1CCO,1.4549,170.831,251.2013239,0.68005613
CBUSPY,O=C1NC(=O)C2(CCC2)C(=O)N1,1.5162,125.168,184.0585866,0.68004434
FUFSIJ01,NC(=O)N/N=C1/C=Cc2ccccc2C1=O,1.452,167.266,245.9671989,0.680033764
DETZAD,O=C(C1=C/Nc2ccccc2/N=C/C(C(=O)c2ccccc2O)=C\Nc2ccccc2\N=C\1)c1ccccc1O,1.4205,419.878,617.4553337,0.680013561
QOTRAT,N#Cc1cc(N)c(/N=C/c2ccccc2O)cc1C#N,1.3858,213.559,314.0562249,0.680002443
OBOBOW,O/N=C1\ON=C(c2ccccc2)\C1=N\O,1.4831,156.121,229.5893327,0.680001105
LUYYIQ,COc1c2oc3ccccc3nc-2cc(O)c1=O,1.4884,184.393,271.1731213,0.679982585
UBECAI,O=C1c2ccc(Oc3ccc4c(c3)C(=O)N(CCCO)C4=O)cc2C(=O)N1CCCO,1.4768,324.279,476.9131777,0.679953952
GOSMEJ,COc1ccc2c(c1)[nH]c(=O)c1ccccc12,1.4173,179.312,263.7170338,0.67994091
AROFOC,O/N=C1\C=C/C(=N\n2cnnc2)c2ccccc21,1.4429,187.084,275.15242,0.679928601
FINWAD,Cc1n[nH]c(O)c1C1c2ccccc2Oc2nc(N)c(C#N)c(N)c21,1.4719,256.298,376.952278,0.679921611
COMBIS,CC1(O)NC(=O)C2(C#N)C1C2(C#N)C#N,1.4354,158.925,233.7485682,0.679897213
DEWMAW,Cc1noc(N)c1C(=O)NN,1.4968,117.719,173.1434281,0.679892973
LAJZON01,O=C(N/N=C/c1ccccn1)c1cnccn1,1.4306,179.212,263.5888627,0.679892156
JUTXAA,O=C1C2=C3C(=O)c4ccccc4N3CCCN2c2ccccc21,1.4385,237.108,348.7496971,0.67988016
MUDMII,O=C(O)c1ccc(N2Cc3ccccc3C2=O)cc1,1.4372,198.804,292.4119865,0.67987637
HASWIK,O=C1c2cccc3cccc(c23)C(=O)N1c1ccc[n+]([O-])c1,1.4666,223.295,328.4391228,0.67986724
VAYJAG02,O=C1C=CC=C/C1=C/Nc1ccccc1O,1.4062,171.073,251.627757,0.679865378
PABZAM,O=C(Nc1ccc(NC(=O)c2ccccc2)cc1)c1ccccc1,1.3827,258.11,379.6563447,0.67985167
HOVXUL,CC(=O)c1cc[n+](C(=C=[N-])C#N)cc1,1.3551,154.166,226.7794473,0.679805872
IJOKIB,O=c1[nH]nc(O)c2ccccc12,1.4835,123.305,181.3875869,0.679787421
DALPEL,O=C([O-])CC[N+](O)(CCC(=O)O)CCC(=O)O,1.4931,188.304,277.0278648,0.679729457
TOLWAT,CC(=O)c1nc2c(=O)n(C)c(=O)n(C)c2nc1C,1.4697,190.532,280.3155851,0.67970534
EWUVEY01,CN1CC(=O)NC1=O,1.4898,86.402,127.1175227,0.679701729
HAMLIQ,CNc1cc(C(=O)OC)c(O)c(O)c1C(=O)OC,1.4977,192.231,282.8178949,0.679698857
AVIMEZ,CC1=C(C#N)C(=C(C#N)C#N)NC(=O)/C1=N\Nc1ccccc1,1.4062,242.475,356.7439381,0.679689195
LIJZIN,CCc1cn(C2CC(O)C(CO)O2)c(=O)nc1N,1.4766,195.003,286.9127977,0.67965947
PCTRIB10,CC(O)C(NC(=O)Nc1ncnc2c1ncn2C1OC(CO)C(O)C1O)C(=O)O,1.551,299.902,441.2573532,0.679653263
DAZADN10,Nc1nccc2c1ncn2C1OC(CO)C(O)C1O,1.5275,196.608,289.2884838,0.679626086
UYITUT,O=C(Nc1ccncc1)c1ccc(CN2C(=O)c3cccc4cccc(c34)C2=O)cc1,1.4296,321.393,472.9120606,0.679604152
KOFLEX,O=C1NC(c2cccc3ccccc23)C(C(=O)O)O1,1.4738,196.845,289.6515554,0.679592415
CITXUY10,N#Cc1cc(=O)[nH]c(=O)n1C1OC(CO)C(O)C1O,1.5525,195.571,287.7996664,0.679538661
KONCAR,N#CCCn1c(=O)n(CCC#N)c(=O)n(CCC#N)c1=O,1.4335,226.781,333.7384198,0.67951721
FAVCOU,CN(C)c1nc2ncc(C(O)C(O)CO)nc2c(=O)[nH]1,1.5007,211.374,311.0650083,0.679517125
LABNIL01,O=C(O)c1n[nH]c2ccccc12,1.4726,124.168,182.7301951,0.679515501
QAYWOF,N#Cc1ccccc1NC(=O)Nc1ccccc1,1.3739,194.716,286.5652566,0.679482231
OCIFEL,COC(=O)c1cc2oc(C=O)cc2[nH]1,1.495,145.687,214.4201239,0.679446487
CENRUJ,O=C1CC(=O)Nc2ccccc2N1,1.4652,135.567,199.5378609,0.679404898
FENCIK,C/C(=N\O)C(=NO)/C(C)=N/O,1.4413,124.503,183.266723,0.679354102
BIXLOJ,O=c1c2cc3ccccc3cc2c(=O)n2n1CC=CC2,1.4462,206.008,303.2413571,0.679353245
CSURCD10,O=C1NC(=O)C2C(N1)C1NC(=O)NC(=O)C12,1.6037,157.61,232.0041115,0.679341409
DINTAV10,COC12NC(=O)NC1(OC)C(=O)N(C)C(=O)N2,1.5735,174.991,257.591691,0.6793348
YESMUH,c1cncc(-c2noc(CCc3nc(-c4cccnc4)no3)n2)c1,1.4583,247.604,364.5077622,0.679283203
MISWUJ,N#Cc1cccc2c1C(=O)c1ccccc1-2,1.3738,168.346,247.8604016,0.679196834
SANYIP,Oc1ccccc1/C=N/c1ccc(/N=C/c2ccccc2O)cc1,1.3832,257.749,379.5191063,0.679146308
DICLEG,CCCN1C(=O)c2ccc3c4ccc5c6c(ccc(c7ccc(c2c37)C1=O)c64)C(=O)N(CCC)C5=O,1.4493,368.965,543.2875897,0.679133864
VOYTEL,CC12NC(=O)C(C(=O)O)C1(C)C(C(=O)O)C(=O)N2,1.5454,186.869,275.1579342,0.679133606
FOVVUI,NNC(=O)Cn1nnc2ccccc21,1.4577,147.826,217.6775927,0.679105268
JAZCEV,O=C(O)c1cccc(NC(=O)c2ccccn2)c1,1.4336,190.417,280.3990077,0.679092988
DOJJET,CC1(C)OC(=O)c2cc(=O)n3ccccc3c2C1=O,1.4741,196.656,289.5926072,0.679078109
VEPSUF,CC(=O)OCC1C(O)C(O)C(N2C(=O)c3ccccc3C2=O)C1O,1.5024,251.518,370.385978,0.679069983
ZOQDEQ01,COc1ccc(/C=C(\C#N)C(N)=O)cc1,1.3742,165.821,244.1889553,0.679068387
LIVQUF,[N-]=[N+]=CC(=O)ON1C(=O)c2ccccc2C1=O,1.5075,172.815,254.4909494,0.679061477
VIDMAX,NC(=O)c1ccc(O)cc1,1.4163,109.114,160.687266,0.679045718
ZEHHUP,Oc1ccccc1C1=Nc2cccc3cccc(c23)N1,1.4187,206.726,304.4432901,0.679029582
REKCOZ,O=C(O)CNC(=O)CNC(=O)C(=O)NCC(=O)NCC(=O)O,1.5424,232.536,342.4569373,0.6790226
EQAHEL,Nc1ccc(N)c2c1C(=O)c1ccccc1C2=O,1.4499,185.146,272.6712616,0.679008117
VAVNEL,COc1ccc(-c2cn3c(=O)[nH]ncc3n2)c(OC)c1,1.4785,207.506,305.6031217,0.679004844
TOVHIY,Cc1ccc(O)c(C(=O)c2cnc3c(c2)c(=O)[nH]c(=O)n3C)c1,1.4714,238.38,351.0921981,0.678966953
HOYWIC,COc1ccccc1N/N=C(/C(C)=O)C(=O)Nc1ccc2[nH]c(=O)[nH]c2c1,1.4665,282.252,415.7196363,0.678947963
XAQCAV,O=C(O)c1ccc2c(c1)nc1c3ccccc3[nH]c(=O)n21,1.4973,210.134,309.4999853,0.678946721
TALJUL,O=C1NC2OCC(O)C(O)C2O1,1.6043,123.017,181.1910672,0.678935236
BISVEH,N=c1c2ccccc2[nH]c(=O)n1Cc1ccccc1,1.4097,200.823,295.7979674,0.678919473
SAGDUA,O=C1OCCN1C(=O)c1cccnc1,1.4751,146.78,216.2050228,0.678892646
LIVVES,NC(=O)N1Cc2ccccc2C1=O,1.453,136.602,201.2132648,0.678891623
XAFCAL,O=Cc1ccccc1NC(=O)c1ccc2ccccc2c1,1.3798,224.766,331.0785188,0.678890315
QIPFIG,Cc1cc(O)cc(=O)[nH]1,1.4283,98.7,145.3855457,0.678884545
XAGGES,CCOC(=O)c1cn(-c2ccccn2)cc2c(=O)n(-c3ccccc3)nc1-2,1.4383,282.264,415.7818204,0.678875281
VEDXAF,O=c1oc(-c2ccccc2)nc2oc3cc4c(cc3c12)oc1nc(-c2ccccc2)oc(=O)c14,1.5093,334.643,492.9863325,0.678807865
ZENQDX,O/N=C1C(=N\O)\C=Cc2ccccc2\1,1.4305,148.183,218.3083354,0.67877848
NIXPUF,C[N+](=O)[N-]OCO[N-][N+](C)=O,1.5202,121.641,179.2060213,0.678777416
ISOCEA,COC1=CC(=O)CC23OCC(=O)N2c2ccccc2C(O)C13,1.4935,227.243,334.7829893,0.678777021
AGALIF,Cc1ccc2nc3n(c(=O)c2c1)-c1ccccc1C3=O,1.4375,205.498,302.7481476,0.678775416
BEWFOB,Cc1cc(=O)oc2cc(OCc3cn(C4OC(CO)C(O)C4O)nn3)ccc12,1.5051,291.381,429.3246239,0.678696222
OMEXIN,COc1c(N(O)C(C)C)c(=O)c1=O,1.4594,142.918,210.5832961,0.678676812
QEDZAD,N#CC1=C(N)N2C(=O)NC(=O)C2C1c1ccco1,1.5039,182.888,269.4896193,0.678645807
MENAMA,COC(=O)C1=C(N)C2(CO2)C2OC2C1=O,1.5302,155.432,229.0330865,0.678644306
AFIDUQ,CC(=O)NC1OCC(O)C(O)C1O,1.5152,142.116,209.4155267,0.678631629
GEPFUD,O=C(O)C[n+]1ccccc1C(=O)[O-],1.482,137.659,202.8548485,0.67860838
JAGFOM,O=C1NC(Cc2c[nH]cn2)C(=O)NC1Cc1c[nH]cn1,1.4783,208.952,307.9213002,0.678588977
ADAJOF,O=C(NNC(=O)c1cc2ccccc2oc1=O)c1ccccc1O,1.4833,246.196,362.8115124,0.678578247
ISORUD,O=C(O)c1cc2ccccc2[nH]1,1.4367,126.305,186.1458723,0.678526998
DADZUF,OCC1OC2C(OCc3cnnn32)C(O)C1O,1.5708,174.365,256.9823119,0.678509734
ATODAQ,O=Cc1c[nH]c2ncccc12,1.4167,116.152,171.1917344,0.678490702
PQUAZD,O=c1[nH]c2ccccc2c(=O)n1-c1ccccc1,1.4275,187.905,276.9499561,0.678479978
PUMVOJ,O=C1NC(=O)C2C3C=CC(O3)C12,1.5222,122.158,180.0484366,0.678472984
IZACET,Cc1ccc(C(=O)O)c(=O)[nH]1,1.468,117.455,173.1216145,0.678453701
FEQVOP,COC(=O)/C(C1=CC(=O)c2ccccc2C1=O)=C1\NCCNC1=O,1.475,249.074,367.1223762,0.67844952
SURCEP,COC(=O)c1c(C(=O)OC)c2ccccn2c1-c1nc2ccccc2[nH]1,1.4575,269.855,397.753584,0.678447689
XOSDIS,O=C(CC(=O)NC(CO)(CO)CO)NC(CO)(CO)CO,1.4828,235.642,347.3256843,0.678446803
VUXNAG,[O-][n+]1ccccc1Cc1cccc[n+]1[O-],1.4162,160.748,236.9470854,0.678413072
CILWAY,NNC(=O)c1cccnc1-c1ncccc1C(=O)NN,1.4601,209.943,309.4670704,0.678401743
VEXNES,O=C1c2ccccc2C(=O)N1c1ccccn1,1.4348,175.922,259.3195384,0.678398554
HITLII,Oc1ccccn1,1.3867,77.207,113.8087771,0.678392317
SOLSOD,CCN1C(=O)c2cccc3c(Oc4ccc(C=O)cc4)ccc(c23)C1=O,1.4261,272.607,401.846462,0.678385965
YIPBAD,O=C(c1cccc(C(=O)n2cccn2)n1)n1cccn1,1.4519,207.223,305.4657911,0.678383656
COXGAX,Nc1ccc2cccc(O)c2n1,1.4153,127.403,187.80592,0.678375847
YOTVIP01,COc1cccc(-c2nnc(-c3nnc(-c4cccc(OC)c4)o3)o2)c1,1.4615,269.851,397.7957982,0.678365637
HQOXAL10,O=c1cnc2ccccc2[nH]1,1.4255,115.411,170.1349211,0.67834986
HONVOV,Cc1c(O)c(=O)ccn1C1OCC(O)C(O)C1O,1.5222,190.249,280.4648204,0.678334629
IJEZIG,COC(=O)c1[nH]c(C(=O)OC)c(C(=O)OC)c1C(=O)OC,1.5056,223.749,329.8524653,0.678330537
WOJKUD,O=C1CCC(=O)N1c1cccc(O)c1,1.4496,148.464,218.8681833,0.678326094
JACVAL,Nc1ncnc2c1ncn2C1OC2(CO)COC1C2O,1.5583,201.746,297.4190268,0.67832244
KEBJOR,CN1C(=O)c2c(c3oc4ccccc4c3c3ccccc23)C1=O,1.4512,233.691,344.5171631,0.678314537