name,smiles,Density,Vint,Veff,pc
ULIBAV,COC(=O)C1=Cc2ccccc2NC(C(=O)c2ccccc2)C1,1.3319,247.831,382.9152883,0.647221481
QADBUU,O=c1nc(-c2ccccc2)[n-][n+]2c3c(c4c(c12)CCCC4)CCCC3,1.3504,263.574,407.2410757,0.647218603
OFOKAY,O=C(Nc1ccncc1)Nc1ccccc1Oc1ccccc1Oc1ccccc1NC(=O)Nc1ccncc1,1.3784,414.956,641.1403881,0.647215505
KUNDOM,COc1cccc2c1CC/C2=N\O,1.3313,142.956,220.8798557,0.647211578
REWKOW,O/N=C\c1c[nH]c2ccccc12,1.3424,128.151,198.0048559,0.6472114
QINLAD,COC(=O)c1ccc(C)c(NC(=O)c2ccccn2)c1,1.3462,215.635,333.1813954,0.647200003
MERDIZ,COC(=O)c1ccc(/N=C/c2cccc(OC)c2O)cc1,1.3483,227.255,351.1364232,0.647198596
OBICUX,CN1CC2CON(C)C2c2c1cnn(C)c2=O,1.3948,181.941,281.1249191,0.647189159
TAPRUY,COc1ccc(/C=N/c2ccc(Oc3ccc(O)cc3)cc2)cc1,1.3247,258.9,400.039309,0.647186399
VEJCAO,COc1ccc(Nc2cccc3oc4cc(OC)ccc4c(=O)c23)cc1,1.3692,272.458,420.9906718,0.647182986
MICHIQ,CN1OCC2CN(c3ccccc3)c3oc4ccccc4c(=O)c3C21,1.3798,260.251,402.1301431,0.647181029
PESJUT,CC1=CC(=C(C#N)C#N)C=C(C)O1,1.2694,145.673,225.0897421,0.647177427
METPEH,Cc1cc(NC2OC(=O)c3ccccc32)ccc1C1OC(=O)c2ccccc21,1.3691,291.312,450.1313474,0.647171102
MAYCEW,COC(=O)c1noc(C(=O)OC)c1C(=O)OC,1.4528,179.784,277.8006191,0.647169184
BEVLIX,CC12NC(=O)NC(=O)C1CC21CC(=O)O1,1.4567,154.976,239.4675449,0.647169119
TEDYUY,O=C(Nc1ccncc1)C1CCC(C(=O)Nc2ccncc2)CC1,1.3478,258.472,399.3899794,0.647166963
EHATEN,COc1ccc2c(c1)NC(=O)/C2=C(\C(C)=O)c1c[nH]c2ccccc12,1.3599,262.46,405.553337,0.647165184
ASIXAC,Cc1ccc(O)c(/C(=N/O)c2noc(=O)c3ccccc23)c1,1.3914,228.684,353.3634909,0.647163631
BOTXEP,CCCn1cc2c(=O)oc3ccccc3c2n1,1.361,180.104,278.2998168,0.647158169
BOKGEP,C[C@H](c1ccccc1)N1C=CN([C@H](C)c2ccccc2)C1=C1N=NC(=O)N=N1,1.3418,298.077,460.5941782,0.64715755
IWORUJ,Cc1ccccc1C1CC(c2ccc(O)cc2)=NN1C(=O)c1cccnc1,1.3319,288.171,445.2883214,0.64715598
DEYJUO,COc1ccc(Nc2nccc3ccccc23)cc1,1.3151,204.382,315.8190891,0.647148976
HAVCAJ,Nc1ccc(-c2nc3ccccc3[nH]2)c(O)c1,1.3677,176.862,273.2944403,0.647148181
TECHIV,COC(=O)NC1C2OC3C(OC(=O)N(C(C)=O)C13)C2OC(C)=O,1.4877,236.997,366.2212536,0.647141578
TAWDIF,Cc1cc(=O)oc2cc3c(cc12)CCN3,1.3671,158.062,244.2482276,0.647136733
WIZCUD,COC(=O)/C=C\C1O[N+]([O-])=C(C(=O)c2ccccc2)C1c1ccccc1,1.3561,278.236,429.9494012,0.647136615
TAMXEK,Nc1nc2c(ncn2C2C=CC(CO)C2)c(=O)[nH]1,1.4146,187.72,290.079004,0.647134048
ZEPNOA,Oc1ccccc1C(n1ccnc1)n1ccnc1,1.3521,190.829,294.8834442,0.647133651
DACREG,COc1ccc2c(c1)C1C3c4cc(OC)ccc4OC(=O)N3CCCN1C(=O)O2,1.4319,297.293,459.4015124,0.647131087
WOMBIM,CCCc1cc(=O)oc2cc(OC(=O)c3cccnc3)cc(OC(C)=O)c12,1.387,284.427,439.520936,0.647129583
HILXIM,CCOC(=O)NN(C(=O)OCC)c1ccc(NC(=O)C2CC2)c2ncccc12,1.3737,302.08,466.8091056,0.647116769
HIGXIH,O=c1c2c3ccccc3oc2c2ccccc2n1Cc1ccccc1,1.3504,258.711,399.7912684,0.647115183
WEVWIE,CC#Cc1cn(C2CC(O)C(CO)O2)c(=O)nc1N,1.3941,204.349,315.7846989,0.647114951
AGOQIY,O=C(CC(CC(=O)c1ccccn1)c1ccc(O)cc1)c1ccccn1,1.3269,280.309,433.1798715,0.647096087
ZIYGUL,CNc1nc(C)nc(OC)n1,1.3609,121.666,188.0184557,0.64709605
XAFPIF,COc1ccc2c(c1OC)CCN1C(=O)c3ccccc3C21O,1.3852,241.346,372.9705659,0.647091278
SUMSAW,O=C(/C=C/c1ccc2c(c1)Cc1ccccc1-2)c1ccccn1,1.2977,246.025,380.2032623,0.647088082
FITLOL,CC(=O)Nc1ccc(-c2c(-c3ccccc3)[nH]c3ccccc23)cc1,1.3103,267.457,413.333787,0.647072677
OGUBIC,Cc1ccc2c(c1)/C(=C1\OCc3ccccc31)C(=O)N2C,1.3363,222.826,344.3607939,0.647071339
VIYSED,COC(=O)C1=CN(c2ccc(OC)cc2)C=C(C(=O)OC)C12C(=O)Nc1ccccc12,1.3915,324.428,501.3808306,0.647069015
LIBVEA,COC(=O)C1(C(=O)OC)CC(C)=C(c2nc(-c3ccccc3)nc3ccccc23)C1,1.3435,321.643,497.0774126,0.647068227
IQENAU,COC(=O)c1ncn(Cc2ccc(OC)cc2)c1-c1ccccc1O,1.3559,267.956,414.1110161,0.647063202
CIZDIB,Cc1ccc(O)c(N/C=C2/C=CC=C(O)C2=O)c1,1.3504,193.426,298.9295732,0.647062109
FALWEX,CN1C(=O)C(=CNc2ccccc2Oc2ccccc2)C(=O)N(C)C1=O,1.3781,273.77,423.0992215,0.647058624
AYAVAY,CC(Nc1c(C(=O)O)c(=O)[nH]c2ccccc12)c1ccccc1,1.3652,242.508,374.7858064,0.647057588
XNTLUR,O=C(NC1c2ccccc2Oc2ccccc21)NC1c2ccccc2Oc2ccccc21,1.3683,329.934,509.9004311,0.647055738
CAFJEZ,N#CC1(C(N)=O)C2/C=C\C=C/C=C\C21,1.2892,155.09,239.68609,0.647054654
GAVGEQ,COC(=O)Nc1ccc(C)c(NC(=O)OC)c1,1.3692,186.848,288.7680029,0.647052298
ZELMUB,CCOC(=O)c1nc2n3c(cccc13)=CC(c1ccccc1)=c1ccccc1=2,1.3349,294.711,455.4699351,0.647048196
ETOBAQ,O=C(CN1C(=O)c2ccccc2C1=O)c1ccccc1,1.3542,210.32,325.0492594,0.647040391
YILLAI,O=C(NN=c1c(=O)c2ccccc2c1=O)c1ccccc1,1.3668,218.594,337.8413942,0.647031429
NIPBAR,O=C(O)CN1C(=O)C2C3C=CC(C3)C2C1=O,1.4321,165.861,256.3416398,0.647031049
BUDTAW,CC1CC(=O)Nc2ccccc2N1C=O,1.3572,161.572,249.71386,0.647028563
PIPWUG,C=C1C(O)C2(C(=O)N1OC)/C(=C\CC)C=CC(=O)C2O,1.3702,218.865,338.2653504,0.647021635
QIKFIZ,Nc1ccc([N+](=O)[N-]c2ccccc2)cc1,1.3312,171.99,265.8185141,0.647020395
JODNOG,C/C(=N\NC(=O)c1ccccc1)c1ccc(N)cc1,1.299,209.364,323.5824349,0.647019051
CMTZFM,C[N+]1(C)[N-]C=N/C1=C(/C#N)C=O,1.3187,133.679,206.6082717,0.647016689
MCZNON,COC(=O)C12N=NCC1c1ccccc1-c1ccccc12,1.3533,220.798,341.2562177,0.647015318
OZORON,CCC(=O)n1c2ccccc2c2ccccc21,1.3043,183.781,284.0446102,0.647014565
DEZROP,CC(=O)/C(=N/O)C(=O)c1ccccc1,1.3354,153.721,237.5852318,0.647014121
WOYLIF,CN1C(=O)C23CCCC(O)C24CCC(C(=O)N4)C1CC3,1.401,213.324,329.705602,0.647013574
YARDOL,COc1cc2ccnc(C(C)c3ccccc3C#N)c2cc1OC,1.3077,261.387,403.9902243,0.647013181
BUGNIB,O=C1c2ccccc2C2(O)C(O)CCCCN12,1.376,182.014,281.3186657,0.647002926
DUPDEY,O=C1Nc2ccccc2/C1=N\c1ccccc1,1.331,179.267,277.0735591,0.64700147
CEHMAF,COC(=O)c1ccccc1/N=N/C1=C/C(=C/Nc2ccccc2O)C(=O)C=C1,1.3587,296.632,458.4731265,0.646999754
POVVEE,COc1ccc(C(CC(=O)Nc2cccc3cccnc23)N2C(=O)c3ccccc3C2=O)cc1,1.36,356.413,550.8713339,0.646998633
APIVUS,Cn1c2c(c(=O)n(C)c1=O)C1c3ccccc3OC(=O)C1C(c1ccccc1)O2,1.4152,296.176,457.769843,0.646997622
YEPJEI,Cc1nc(-c2ccccc2)ccc1C=O,1.2829,165.054,255.1078,0.646997073
WUYMEK,CCOC(=O)CN1C2CC3(C)c4c(c5ccccc5oc4=O)OC1C3c1ccccc12,1.3967,320.896,495.9776248,0.646996929
KOJNIH,COC(=O)c1cn(-c2ccc(OC)cc2)nc(C(=O)OC)c1=O,1.401,243.931,377.0251679,0.646988638
QAGWEE,COc1cccc(NC(=O)CCCC(=O)O)c1,1.3493,188.791,291.8020005,0.646983227
FEDLIK,O=C(CCn1cncn1)c1ccc(O)cc1,1.3547,172.165,266.1043487,0.646983038
VIXMAT,Cc1ccc(C(=O)Oc2c(N)ccc3cccnc23)cc1,1.3456,222.049,343.2090066,0.646978942
ROFGUP,O=C(Nc1ccccc1)c1ccccn1,1.3132,162.055,250.4801303,0.646977466
FEMPEU,Cn1cccc1C(=O)CC#N,1.281,124.18,191.9395149,0.646974648
TOJWUM,Cc1[nH]c(=O)c(C#N)c(C)c1C,1.2826,135.765,209.8463333,0.64697342
ZENWOE,Cc1ncc(CO)c(/C=N/NC(=O)c2ccncc2)c1O,1.3728,223.908,346.0872697,0.646969766
SUKNOD,COc1ccc(OC)c(-c2cnn(-c3ccccc3)n2)c1,1.3441,224.7,347.3119099,0.646968887
CUKROQ,c1ccc(-c2nn3c(-c4ccccc4)ncc3o2)cc1,1.3508,207.656,320.9700963,0.646963697
YAJTAG,CCN1C(=O)/C(=C\N)c2ccccc21,1.3095,154.318,238.5265335,0.646963664
QIWVOH,COc1ccc(-n2c(-c3ccncc3)nnc2-c2ccncc2)cc1,1.3433,263.225,406.870686,0.646950024
VASTOA,CC(=O)N1N=C(c2c(O)c3ccc(N(C)C)cc3oc2=O)CC1c1ccc(N(C)C)cc1,1.3599,343.014,530.204346,0.646946791
PAKNOE,COc1ccc(OC)c(C(=O)/C=C2\Nc3ccccc3NC2=O)c1,1.376,253.051,391.1473389,0.646945473
XUXYIZ,O=C(N/N=C/c1ccccn1)c1cccnc1-c1ncccc1C(=O)N/N=C/c1ccccn1,1.364,354.551,548.0409416,0.646942542
GECQOU,COC(=O)CC1CN(Cc2ccccc2)c2c(C=O)c(OC)nc(=O)n21,1.3893,276.162,426.872656,0.646942352
QEDNOE,O=C(N/N=C/c1ccc(OCc2ccccc2)cc1O)c1ccccc1,1.3348,278.583,430.6161009,0.64694051
EJOYIO,COc1nc(N)c(C#N)c(-c2ccccc2)c1C#N,1.3222,203.193,314.0916023,0.64692274
CEWFUF,CN(Cc1nc(-c2ccccc2)no1)c1nc(-c2ccccc2)no1,1.361,262.943,406.4535985,0.646920094
UYIRIG,COC(=O)c1c(-c2ccccc2)nc(-c2ccccc2)n1N,1.3429,234.482,362.4611946,0.646916149
MXBPOX,CO/N=c1\cc(C)oc2c(OC)c3occc3c(OC)c12,1.3954,222.564,344.038408,0.646916143
ZUPDOF,COC(=O)/C1=C/N2CCCC2/C=C(/C(=O)OC)C2C(=O)Nc3ccc(C)c1c32,1.3833,296.779,458.7602537,0.646915241
VEBPEX,OCC1OC/C(=N\O)C(O)C1O,1.4675,129.616,200.3625333,0.646907373
FOGMEU,[O-][n+]1cc(-c2ncc(-c3ccccc3)cn2)cc(-c2ncc(-c3ccccc3)cn2)c1,1.3446,322.087,497.8876847,0.646906943
KEGFUY,CCC/C(C#Cc1ccccc1)=C1/C(=O)Nc2ccccc21,1.266,243.64,376.6269842,0.64690001
YENYOI,c1ccc(C2=NC3(CO2)COC(c2ccccc2)OC3)cc1,1.3533,234.264,362.1352786,0.646896378
FEZMOO,CCOC(=O)c1cnn2c(-c3ccccc3)cc(-c3ccc(C)cc3)nc12,1.328,288.901,446.5960205,0.646895599
USOVEG,O=C1c2ccccc2C23CN1CC=C2c1ccccc1N3Cc1ccccc1,1.3327,293.531,453.755571,0.646892333
GEBJUS01,O=C1CCC23CC=CC2c2cc4c(cc2CCN13)OCO4,1.3937,218.222,337.3397952,0.64689077
NILVAH,Cc1ccc(-c2nnc3c4ccccc4cnn23)o1,1.3758,195.266,301.8548601,0.64688705
ISQUME,OC(c1ccccc1)c1nccc2ccccc12,1.2988,194.444,300.5902257,0.646873994
PAMNOG,COc1cccc(N2CCCC2=O)c1,1.329,154.457,238.7748234,0.646873057
IVITUD01,COC(=O)/C=C(/c1ccccc1)N1CCCC1=O,1.3292,198.082,306.2155312,0.646871173
NAWHOJ,CC(=O)c1c2[nH]c3ccccc3nc-2c(-c2ccccc2)c1-c1ccccc1,1.3157,295.668,457.0744555,0.64687054
YUMYOW,CCOC(=O)/C=C1\C=CC(C(=O)c2ccccc2O)=CN1c1ccc(OC)cc1,1.3489,311.48,481.5259545,0.646860251
OCIQEW,Cn1c2ccccc2oc2cc3oc4ccccc4n(C)c3cc21,1.3727,247.371,382.4221081,0.646853293
XOGQES,COC(=O)c1ccc2c(c1)-c1nc(-c3ccccc3)c(-c3ccccc3)c3cccc(c13)O2,1.346,342.468,529.4383812,0.646851479
PUFSIT01,CCN(CC)c1ccc2cc(/C=N/NC(=O)c3ccccc3O)c(=O)oc2c1,1.3559,300.369,464.3571164,0.646849137
BUWPAK,COc1ccc(Nc2ncnc3c(=N)n(C)cnc23)cc1,1.3763,220.187,340.4005688,0.646846745
JUJHIH,COC(=O)/C=C(/C(=O)OC)C1=C(N(C)C)c2ccccc2C1=O,1.3527,250.223,386.8357972,0.646845514
AFIXUL,Cc1cc(C)c2c(COc3cccc4cccnc34)cc(=O)oc2c1,1.346,264.245,408.5135755,0.646845089
OKAHUF,COc1ccc2c(c1)N1C(=O)CCC1c1ccn(C)c1-2,1.3615,211.532,327.0231566,0.646841044
XAZJOA,COc1ccc(-[n+]2[n-]oc(=O)c2-c2noc(CN3N=NC4C(=O)N(c5ccccc5)C(=O)C43)n2)cc1,1.4468,362.391,560.2508133,0.64683708
AIPCUR10,CC1(C)OC2C3COc4nc(=O)ccn4C(O3)C2O1,1.4716,194.222,300.2646813,0.646835982
SOZFIY,Cc1ccccc1-c1c2n(c3ccccc3[n+]1=O)CCC[N-]2,1.349,231.815,358.3857461,0.646830971
SIJWUG,COC12C=CC(C=CC1=O)C1C(=O)N(C)C(=O)C12,1.4011,189.42,292.8473705,0.646821584
CACVAF,COc1ccc(OC)c2c1CCN1C(=O)c3ccccc3C21O,1.3848,241.314,373.0782985,0.646818646
IVIFEB,CC1(C)C(=O)NN2c3ccccc3-c3c(ccc4ccccc34)OC21,1.3544,261.813,404.773491,0.646813603
YUGFOY,O=C(/C=C1\c2ccccc2NC(=O)N1c1ccccc1)c1ccccc1,1.3338,273.895,423.4557113,0.646809082
GIFSAS,O=C(Nc1cccnc1)Nc1ccccc1Oc1ccccc1NC(=O)Nc1cccnc1,1.3737,344.159,532.0879223,0.646808517
LEFJEM,CN1C(=O)N(C)C(OO)N(C)C1=O,1.4512,139.941,216.3574087,0.646804751
YOHFOR,Cc1n[nH]c2c1c(=O)oc1cc(N(C)C)ccc12,1.3762,189.733,293.339013,0.646804522
ZETXED,Cc1ccc(-c2n[nH]c(=O)o2)cc1,1.3717,137.859,213.1390784,0.646803022
PONVUL,Cc1cccc2nc(CO)cn12,1.328,131.089,202.6723698,0.646802522
VUNKOH,Cc1nc2ccccc2nc1/C=C(O)/C(O)=C/C(=O)c1ccccc1,1.3478,264.667,409.1942299,0.646800421
IWOROD,O=C(c1cccnc1)N1N=C(c2ccc(O)cc2)CC1c1ccccc1,1.339,275.242,425.5452776,0.646798389
HAJCIH,Cn1cccc1Cc1n[nH]c(=O)n1Cc1ccccc1,1.327,217.024,335.5393232,0.646791553
ZIVLAR,Oc1cccc2ccc(/C=C/c3ccc4cccc(O)c4n3)nc12,1.348,250.273,386.9463199,0.646789973
MEDLUE18,C[NH+](C)CC(=O)[O-],1.3017,85.039,131.4795754,0.646784869
MEZCOL,COc1ccc(-c2nc3ccccc3c3c2CCO3)cc1,1.3387,222.328,343.7434293,0.646784727
CIDPIP,CCOC(=O)c1c(C=O)c2c(N)c(OC)ccc2n1C,1.3745,215.756,333.5830761,0.646783411
YOXBAO,C=CC(=O)NC(CO)(CO)CO,1.3577,138.505,214.1454304,0.646780087
TAWLUA,COc1ccccc1Nc1cccc2c1C(=O)c1cccc(Nc3ccccc3OC)c1C2=O,1.3573,356.212,550.7495054,0.646776795
AFUNAR,CC(=O)OC1=CC2CCC1C1C(=O)NC(=O)C21,1.4184,178.01,275.2264881,0.64677641
MIGNAS,O=C(c1ccccc1)N1C(c2ccccn2)=NC(c2ccccn2)C1c1ccccn1,1.3394,324.888,502.3196725,0.646775386
POTKOA,CCOC(=O)C(=C\C(=O)c1ccccc1)/C(C)=N/NC(N)=O,1.3562,240.053,371.1578212,0.646767995
BARCAY,CC(=O)OC1(C)Oc2nc(C#N)c3ccccc3c2O1,1.4001,207.166,320.3116725,0.646763817
WIQYEC,O=C(Nc1ccccc1NC(=O)c1cc2ccccc2cn1)c1cc2ccccc2cn1,1.3464,333.55,515.7220927,0.646763062
IFOMAU,O=C(c1ncc(-c2c[nH]c3ccccc23)[nH]1)c1c[nH]c2ccccc12,1.3633,256.912,397.2342796,0.646751837
WIZZEL,C=Cn1cc(C=O)c2ccccc21,1.2923,142.17,219.8221839,0.646750012
XIHHUU,CCC1(O)CN2CCc3c([nH]c4ccccc34)C2=C2OC(=O)C(C=O)=C21,1.4027,268.078,414.5008389,0.646748993
NAPMCB,COC(=O)Nc1cccc2ccccc12,1.3278,162.642,251.4774453,0.646745873
VORBIQ,COc1ccc(-c2nnc(C)o2)cc1OC,1.3668,172.935,267.3930392,0.646744584
LEQGEW,COC(=O)c1[nH]nc(O)c1C(=O)c1ccc(C)cc1,1.3767,202.892,313.7127633,0.646744486
TINCEY,CC12ON=C(c3ccccc3)N1C(=O)NC1ON=C(c3ccccc3)C12,1.3964,267.743,413.9872475,0.646742144
HIGQEW,COc1ccccc1/N=C(\C=C\c1ccccc1)C(C)C(=O)N1CCOC1=O,1.3422,302.588,467.865522,0.646741394
XEPLOV,COC(=O)c1c(C(=O)c2ccccc2)c2c3ccccc3ccn2c1C(=O)OC,1.3673,304.062,470.1499181,0.646734134
ADEGUM,COc1ccc(C(=O)C2=C3NCCCN3C(=O)CC2)cc1,1.3635,225.366,348.4784535,0.646714302
JEXMEF,O=C1c2cccc3cccc(c23)C(=O)N1CCOCCOc1ccc2ccccc2c1,1.3568,325.428,503.2066663,0.646708444
TADTAU01,CCOC(=O)C(=O)Nc1cccc(NC(=O)C(=O)OCC)c1,1.3933,237.477,367.2089634,0.64670807
DIPYOQ,COc1ccc2c(c1)C(=O)c1c(NCCc3ccc(O)cc3)c(OC)c(OC)c3ccnc-2c13,1.3704,357.478,552.7681315,0.646705155
QEJTIJ,COc1cc2c(cc1OC)-c1c3ccccc3nn1CC2,1.356,221.847,343.0451532,0.646699124
PEJKAQ,C1=CC2(Oc3ccc4ncccc4c31)c1ccccc1CCc1ccccc12,1.3248,292.752,452.6873117,0.646698046
MEDLEN,Nc1ncnc2c1ncn2C1OC(CO)C2CCC21,1.4129,198.472,306.9008051,0.646697554
MIGMEV,CC(=O)N/N=C(\C)c1ccccc1O,1.3263,155.535,240.5070125,0.64669632
FOMSIK,C=CCn1c2c(c(O)c(C(=O)O)c1=O)CCCC2,1.38,193.846,299.7504632,0.646691244
FIPXOR,CN(C)c1cc(=O)n2c(n1)C(c1ccccc1)=C(c1ccccc1)C2=O,1.3331,276.413,427.4286451,0.646688057
SILBOH,CC(=O)c1nnn(-c2ccc(C#N)cc2)c1C,1.3195,184.002,284.5301374,0.646687207
BASHIO,CC(c1ccccc1)N1CC(=O)N2c3ccccc3C(O)C3C=CC2(O3)C1=O,1.3842,291.817,451.251203,0.646684149
NOKXIU,COC(=O)C1(C(=O)OC)N=Cc2ccccc2C1OC(C)=O,1.3954,234.793,363.0732046,0.646682259
GIRWAH,C=C(C(=O)OC)C1O[N+]([O-])=C(C(=O)OC)C1c1ccccc1,1.3764,238.033,368.0851131,0.646679237
MIGGOB,O=C1C=Cc2ccccc2/C1=C/Nc1cc2ccccc2cc1/N=C/c1c(O)ccc2ccccc12,1.3314,375.996,581.4321717,0.646672163
BUTMEK,COC1(OC)N=C(N)c2nccnc21,1.406,148.231,229.2246598,0.646662537
WOGHIM,COc1cc(/C=N/NC(=O)c2cccnc2)cc(OC)c1OC,1.36,248.818,384.7731155,0.646661604
HOKVIO,CC1C(O)C(O)C(O)c2c(-c3ccccc3)nnn21,1.3956,200.912,310.6918124,0.646660105
YOTZUD,NC(=O)CCn1ccc(-c2ccccn2)n1,1.3375,173.5,268.3046766,0.64665291
DEMBAY,Nc1ccccc1C(=O)c1ccccc1,1.2917,163.842,253.36982,0.646651602
FOYLUA,CC(=O)OC1CC(n2cnc3c(N)ncnc32)OC1CO,1.4394,218.669,338.1564944,0.646650304
DIFMAI,Oc1ccccc1C1=NC(C2COC(c3ccccc3O)=N2)CO1,1.3896,250.456,387.3191841,0.646639801
YAMZES,COc1cccc(C(=O)N/N=C/c2cc(OC)ccc2O)c1,1.3583,237.254,366.902995,0.646639584
OCIGAI,COC(=O)c1cc2oc(C=O)cc2n1Cc1ccccc1,1.3672,222.333,343.8341507,0.646628613
AYERON,N#CC1OCC2C1CC1C(C#N)OCC12,1.3518,162.116,250.7113854,0.646624004
BUBVEZ,O=C=Nc1ccc(Cc2ccc(N=C=O)cc2)cc1,1.3159,204.062,315.5811704,0.646622863
KUXJOC,Cc1ccc(Nc2nc(C)c3c(=O)n4c(Nc5ccc(C)cc5)nc(C)c4c(=O)n23)cc1,1.3654,335.157,518.3207938,0.646620788
SOHVAM,CC(C)=C1C(=O)OC(=O)/C1=C/c1c(C)n(C)c2ccccc12,1.3301,238.244,368.45175,0.64660841
ASAQAP,COC(=O)C1C(=O)n2ccc3cccc(c32)-c2ccc(N(c3ccccc3)c3ccccc3)cc21,1.3442,365.982,566.0062108,0.646604212
CIVMUS,O=C1C(=O)N2c3ccccc3OC(=O)C23C1=C(c1ccccc1)OC(c1ccccc1)C3c1ccccc1,1.3738,390.125,603.3448536,0.646603676
PAXKUW,Cc1cc2c(OCc3cn(-c4ccncc4)nn3)c(C(=O)c3ccccc3)cc(C(=O)c3ccccc3)c2o1,1.341,411.694,636.7046332,0.646601232
NIMKUP,O=C1OCCC(O)C1C1CCC2C3C(=O)OCCC3ON12,1.453,219.567,339.5729709,0.6465974
SARYOC,COC(=O)c1c(-c2ccc(OC)cc2)nn2c1-c1ccccc1CC2,1.3468,266.385,411.9833469,0.646591669
HUWGEN,CC(=O)OCC(OC(C)=O)C(OC(C)=O)C(OC(C)=O)C1OC12C(=O)N(C)C(=O)N(C)C2=O,1.4365,352.892,545.7876325,0.64657383
CICNAE,O=C1CC2COc3ccccc3C2=NN1,1.4038,154.557,239.0400785,0.646573583
KUJQUD,Cc1ccccc1N1CCn2c1nc(O)c(-c1ccccc1)c2=O,1.3555,252.786,390.9632805,0.64657223
HEQQAX,Oc1cccc2ccc(/C=N/OCc3ccccc3)nc12,1.3317,224.225,346.7913489,0.646570339
COJZAD,COc1ccc(C2OC(C#N)(C#N)C3(O2)C(=O)Nc2ccccc23)cc1,1.3822,269.62,417.0009117,0.64656933
APANAH,O=C(/C=C/c1ccncc1)C1C(c2ccncc2)C(C(=O)/C=C/c2ccncc2)C1c1ccncc1,1.3114,386.595,597.9248063,0.646561233
DICMUX,CCCCCN1C(=O)c2ccc3c4ccc5c6c(ccc(c7ccc(c2c37)C1=O)c64)C(=O)N(CCCCC)C5=O,1.358,419.208,648.3683783,0.646558367
SUWCES01,CC(=O)Nc1ccc(OC(C)=O)cc1,1.3376,154.977,239.6968503,0.646554178
OYUBIV,C=CCCC(=O)/C=C1\Nc2ccccc2OC1=O,1.3408,194.657,301.0698803,0.646550893
CUPVOA,C=C(C(=O)OC)C(C/C(=C1/N=C(c2ccccc2)OC1=O)c1ccccc1)c1cccc2ccccc12,1.3198,396.321,612.9780131,0.646550107
AVEKAP,CC1(C)OC(=O)C2=C1Oc1ccnc3cccc2c13,1.3984,194.301,300.5252482,0.646538024
UREYIC,COC(=O)N1CCC2c3ccccc3N3C(=O)CCCC213,1.3846,221.869,343.1679701,0.646531784
EHIKIQ,COC(=O)N1CCc2ccccc2NC1=O,1.3878,170.261,263.3468844,0.64652749
IJANOZ,COc1ccc2c(c1)cc1c3ccccc3[nH]c(=O)n21,1.3758,206.085,318.7582867,0.646524369
OSITUG,O=C1c2ccccc2C(=O)N1CCc1ccc(O)c(O)c1,1.3772,220.682,341.3375333,0.646521342
MEWHUU,COC(=O)c1c2ccccc2c(-c2ccncc2)c2ccccc12,1.3242,253.856,392.6528687,0.646515078
CABMIE,CCOC(=O)C(C#N)C1(C(C#N)C(=O)OCC)C(=O)c2ccccc2C1=O,1.3682,288.842,446.7681981,0.646514235
PULHUZ,O=C(Nc1ccccc1)c1cccc(C(=O)Nc2ccccc2)c1,1.3263,255.884,395.8009709,0.646496645
NINTOW,O=C(/C=C/c1cc2ccccc2[nH]1)c1c2ccccc2cc2ccccc12,1.3133,283.763,438.9292334,0.64648918
UDEKAP,CCOC(=O)C1(C#N)CC=CC2CC(=O)ON21,1.3906,182.256,281.9171302,0.646487852
BUNJEC,O=c1c2ccccc2nc(-c2ccccc2)n1CCO,1.3413,212.987,329.45265,0.646487439
MEBROC,CC1(C)CC(=O)c2cnc3c(/N=N/c4ccccc4)c(O)nn3c2C1,1.3735,261.951,405.1915078,0.646486895
ENIGUE,CCc1ccc2c(=O)c3ccccc3[nH]c2n1,1.3359,180.087,278.5628383,0.64648609
DADCES,Nc1ncnc2c1ncn2C1OC(CO)C2C=CC21,1.4205,195.82,302.9024703,0.646478716
VONPAS,Cc1ccc(NC(=O)C(=O)c2c(-c3ccccc3)nc3c(c2C(=O)c2ccccc2)C(=O)CC3)cc1,1.3382,380.379,588.3923956,0.646471645
LAHNUF,CCOc1c(Nc2cccc3cccnc23)c(=O)c1=O,1.3607,211.502,327.1710193,0.646457013
NIHFAN,NC(=O)NC1(C(=O)O)CC=CC1,1.3971,130.678,202.1450271,0.646456664
FOXLEK,c1cncc(COc2ccc(OCc3cccnc3)cc2)c1,1.3193,237.695,367.692282,0.646450882
SEKKOI,O=C1c2ccccc2C2(c3ccccc3)c3cccc4cccc(c34)CN12,1.3344,279.257,431.9887306,0.646445104
CISPID,COC(=O)C1=C(C(=O)OC)N2c3ccccc3N3C=CC1N32,1.411,227.547,351.9984835,0.646443126
HUDDOZ,N#[N+][N-]C1C2OCC(O2)C(OC(=O)c2ccccc2)C1OC(=O)c1ccccc1,1.409,301.026,465.6653992,0.646442704
DEVWEH,CCOC(=O)C1=C(C)N(Cc2ccccc2)C2(O)C=CC(=O)C3=C(O)c4ccccc4C(=O)C312,1.3884,353.461,546.7786687,0.646442556
UDEBAJ,CCOC(=O)C1=C(C)OC(N)=C(C#N)C12C(=O)Nc1ccccc12,1.3878,251.474,389.0124288,0.646442071
MUCJEA01,Oc1ccccc1/C=N/c1cccnc1-c1ncccc1/N=C/c1ccccc1O,1.3402,315.702,488.3702624,0.646439852
QOKYOF,CCOC(=O)c1c(O)c2ccccc2n(CC)c1=O,1.3691,204.722,316.6918701,0.646439076
METHYM01,Cc1cn(C)c(=O)[nH]c1=O,1.3768,109.202,168.928874,0.646437743
ZAHXEP,O=C1OCCN/C1=C\C(=O)c1ccccc1,1.3578,171.617,265.4830661,0.646432944
ELIXEE01,C(=N/c1ccc(Oc2ccc(Oc3ccc(/N=C/c4ccccn4)cc3)cc2)cc1)\c1ccccn1,1.325,380.917,589.2614359,0.646431239
AZOXIX,O=C1/C(=C/c2ccccc2)CN(CCc2ccccc2)C/C1=C\c1ccccc1,1.2647,321.855,497.8958773,0.646430337
UCIQIH,Cn1cccc1/C(O)=C(\C#N)C(N)=O,1.3554,151.324,234.0932365,0.646426194
PRLTZA,Cn1c(=O)n2n(c1=O)C1C=CC2C23CCC12C3,1.4134,175.517,271.5197041,0.646424541
MUDDIB,O=C(c1ccccc1)c1noc(-c2ccccc2)n1,1.3409,200.196,309.6974139,0.646424513
XENKAD,COc1ccc(C(=O)Nc2nc3ccccc3[nH]2)cc1,1.3606,210.73,325.9940833,0.646422775
BOSGEV,CC1(O)C(CO)OC(n2ccc(N)nc2=O)C1O,1.4446,191.045,295.5435442,0.646419128
TUDTIV,O=c1c2ccccc2c(OC2c3ccccc3-c3ccccc32)nn1-c1ccccc1,1.3413,321.83,497.8665596,0.646418189
LAJDEJ,O=C(CCCc1c(-c2ccccc2)oc2ccc3ccccc3c12)Nc1cccc2cccnc12,1.3276,368.85,570.6076994,0.646416094
PEXKUY,CC(=O)c1cc(C#N)c(=O)[nH]c1C,1.3251,142.621,220.6345738,0.646412743
HIMPOL,COC(=O)c1cn2c(ccc3ccccc32)c1-c1cc(OC)cc(OC)c1,1.3506,287.019,444.0210398,0.646408558
DERMOC,COC(=O)C1NC(=O)CN(Cc2ccccc2)C(=O)C1C(=O)OC,1.3976,256.618,396.9904388,0.646408515
OKOXES,N#Cc1ccccc1OCC(O)CO,1.3323,155.558,240.6503844,0.646406614
GACZOB,Cc1cccc2c1N1C(=O)CCC1(C)OC2=O,1.3758,180.299,278.9266576,0.646402899
XEHJOM,Cc1ccc(-c2cc3nc4ccccc4nc3o2)cc1,1.3426,207.946,321.6994605,0.646398349
DUMVUF,COC(=O)C12C(c3ccccc3)=Cc3ccccc3N1C(=O)c1ccccc12,1.3456,292.858,453.0624796,0.646396498
EHUTEI,O=C1c2cc(-c3ccccc3)nc3cccc(c23)N1Cc1ccccc1,1.3238,272.548,421.6432034,0.646394861
VIFGIA01,COC(=O)/C(C#N)=C/c1ccccc1,1.2858,156.159,241.5907321,0.646378272
ALKCAM01,CC(=O)C1=COCC2C3CC4(C(=O)N(C)c5ccccc54)C(CC12)N3,1.3659,265.74,411.1234706,0.646375162