name,smiles,Density,Vint,Veff,pc
ZURBAS,O=C(N/N=C/c1ccccc1)c1ccoc1,1.3409,171.869,265.1142236,0.648282833
EZIJOO,CC1C(=O)N2c3ccccc3C34CC5C(=O)N(CN1C23)C(O4)c1nc2ccccc2c(=O)n15,1.4546,326.486,503.6183385,0.648280603
ZOQCUF,COc1cccc(/C=C(\C#N)C(N)=O)c1,1.3126,165.732,255.6486837,0.648280279
ICULEX01,COc1ccccc1NC(=O)c1ccccc1OC,1.3511,204.857,316.0009504,0.648279696
GEFGUV,CN(C)/C=C1\C(=O)C(=O)N(c2ccccc2)C1=O,1.3549,193.937,299.1565473,0.64827931
UCURUI,O=Cc1cn(Cc2cn(Cc3ccccc3)nn2)c2ccccc12,1.3395,254.07,391.9145068,0.648279141
AHUTUS,CC1C(C(=O)N2CCOC2=O)N1N1C(=O)c2ccccc2C1=O,1.4326,236.772,365.2317572,0.648278786
NACGOP,COc1ccc(-c2nc3cccc4c5ccccc5c2n34)cc1,1.346,238.427,367.7878783,0.648273133
POFLUS,COc1ccc2ccccc2c1/C=N/NC(=O)c1ccccc1O,1.3488,255.493,394.1168319,0.648267162
JUHBEV,COc1ccccc1-c1ccc(-c2nc3ccccc3o2)cc1,1.3532,239.542,369.5120668,0.648265704
BURYIZ,CCOC(=O)CN1C(=O)/C(=C/c2ccc3cc(O)ccc3c2)N=C1C,1.357,268.234,413.7753329,0.648260007
LEYPEL,Cc1ccccc1N1CCn2c1n[nH]c(=O)c2=O,1.4005,187.624,289.4293897,0.648254831
JEZNAG,COc1ccc(/C=N/NC(=O)c2ccc(N)cc2)c(O)c1,1.3608,225.543,347.9246718,0.64825239
NALQAT,c1coc(-c2nc3c(c(-c4ccco4)n2)CCCC3)c1,1.3653,209.814,323.6613486,0.64825164
UNEGUS,C/C(=N\Cc1ccc(N)cc1)c1c(O)ccc2c(C)cc(=O)oc12,1.3534,256.221,395.2504593,0.648249721
GEGMIR,O=c1c(-c2ccccc2)[n+]([O-])n(Cc2ccccc2)c2ccccc12,1.3424,263.121,405.8984116,0.648243483
GESFOC,CC(=O)Oc1ccccc1C1=Nc2ccccc2NC(=O)C1,1.3683,231.373,356.9269857,0.64823622
UWAKEK,CC1=NNC(=O)C12C=CCO2,1.391,117.674,181.5301753,0.648233826
DIRQIE,COC(=O)/C(=N/Nc1ccccc1OC)C(C)=O,1.3659,197.097,304.0547256,0.648228702
XIBWOV,O=C(NC1(C(=O)O)C(c2ccccc2)C1c1ccco1)c1ccccc1,1.3534,276.082,425.9054438,0.648223694
GIKVUR,CC1n2c(=O)c3cc4ccccc4cc3c(=O)n2CC2OC21C,1.3848,239.506,369.4812125,0.648222405
KAPNEV,Nc1c(Oc2ccccc2)c(Oc2ccccc2)c(N)c2c1C(=O)c1ccccc1C2=O,1.3798,329.318,508.0327053,0.648222047
LOBRUR,CC(=O)OCCOCn1cc(-c2ccccc2)c(=O)n2nc(C)nc12,1.3836,266.177,410.6286037,0.64821836
FOWXAR,CN1CC(C#N)(C#N)C2(C(=O)Nc3ccccc32)C12C(=O)Nc1ccccc12,1.3819,287.527,443.5667903,0.648215796
KUSVUP,CNC(=O)c1ccccc1O,1.3365,121.667,187.6960444,0.648212915
XIWKAQ,COC(=O)C1c2cc(OC)c(OC)cc2C(O)C2COC(=O)N12,1.4411,241.338,372.3132977,0.648212141
VATHEG,CC(CO)(CO)N/C=C1/C=CC=CC1=O,1.3425,167.659,258.6518318,0.648203413
QIRBOL,COc1ccc(C#C/C=C2/C(=O)Nc3ccccc32)cc1,1.3144,225.283,347.5518414,0.648199702
MUFSIP,Nc1ccccc1/N=C/c1ccc(C=O)[nH]1,1.3275,172.782,266.5594019,0.648193231
UVISUO,CN1C(=O)/C(=C\NC(=O)c2ccccc2)c2ccccc21,1.3374,223.829,345.3133239,0.648191033
ABACOW,Cn1c2c(c3c(c1=O)c1ccccc1n3C)CCC2,1.3392,202.647,312.6350601,0.648190257
NEFQAQ,O=C1C=C2NCCC3CC23c2ccccc21,1.3376,169.874,262.0754973,0.648187266
NOQDON,CCn1c(Cn2cncn2)n[nH]c1=O,1.4047,148.726,229.4500788,0.648184567
SAJFIT01,O=C(O)c1ccc(-n2nc(-c3ccccc3O)nc2-c2ccccc2O)cc1,1.3893,289.065,445.9657731,0.648177545
KUZDEP,COc1nc2ccccc2cc1C=O,1.3407,150.178,231.6978917,0.648162998
EDXMAL,CN1C(=O)N(C)C23OCCOC2(Nc2ccccc2N3C)C1=O,1.4438,237.165,365.903405,0.648162867
ATAWID,COc1ccc2c(c1)c1cc(OC)ccc1n2-c1ccccc1C,1.3161,259.366,400.1559956,0.648162224
USOBUA,Cc1c(NC=O)c(=O)n(-c2ccccc2)n1C,1.3517,184.021,283.913553,0.648158561
CAKQOW,CC(=O)C(=NNc1ccc(C(C)=O)cc1)C(C)=O,1.3267,199.657,308.0382863,0.648156443
QUNHAL,COc1ccc2c(cnc3oc(-c4ccccc4)cc32)c1,1.3439,220.322,339.9227177,0.648153208
FIGZAY,COC(=O)C1N(C(C)=O)CCN1C(C)=O,1.3815,166.799,257.3483531,0.648144812
LOBHEP,Cc1cccc(C(=O)/C=C2/C=Cc3ccccc3N2)c1,1.293,217.355,335.3504823,0.648142798
IKAXID,CC(O)Cn1cnc(N)c2ncnc1-2,1.3964,148.831,229.6303461,0.648132978
HINJOG,O=c1cc(-c2ccccc2)[nH]c2cc(-c3ccco3)nn12,1.3862,215.134,331.9344691,0.648121903
GUWKUF,COC(=O)c1ccc(Cn2c(-c3ccccn3)nc3ccccc32)cc1,1.3355,276.526,426.6605216,0.648117147
AHUHUH,COc1ccc(C2C3OC4(COCC(c5ccccc5)N4C3=O)N2Cc2ccccc2)cc1,1.3578,350.502,540.8009138,0.648116508
TEWGIM,COC(=O)/C=C(C(=O)OC)/C(=C/c1nc2ccccc2nc1-c1ccccc1)c1ccccc1,1.3336,363.293,560.5371204,0.648115864
RAFBAB,CN1CCC(O)(c2ccncc2)C(O)C1=O,1.3818,172.989,266.9127186,0.648110742
DAPJEM,Cc1cccc(OC(=O)Nc2ccccn2)c1,1.3384,183.413,282.9991413,0.64810444
XIPQIX,CCOC(=O)C1=NN(c2ccccc2)C2=NC(=O)/C(=N\Nc3ccccc3)N12,1.393,290.597,448.3839209,0.648098619
AWUNAI,COc1c2ccoc2nc2c(OC)cccc12,1.3851,177.992,274.6372876,0.648098449
IJAWAR,COC(=O)C1(NC(=O)c2ccccc2)CC1C(O)CO,1.3649,220.08,339.5788577,0.648096885
GAMQUJ,CCOC(=O)CC(=N\NC(=O)c1ccccc1N)/C(CC(=O)OCC)=N/NC(=O)c1ccccc1N,1.3732,388.896,600.0592765,0.648095972
WAXLUC,Nc1ccn(C2C=CC(CO)O2)c(=O)n1,1.4164,158.866,245.1273062,0.648095891
RUTCUE,COC1=Nc2c(C)noc2Cc2nnnn21,1.4599,162.234,250.3251541,0.648093079
EXZPRD,CN1C(=O)C23CCCCC2(C1=O)C1OC1C1OC13,1.4262,187.967,290.0404146,0.648071753
SIWGOU,COC(=O)C1=CC(C(=O)OC)C2C(C(=O)OC)=CNC1C2C(=O)O,1.4374,253.88,391.7502773,0.64806591
WARYET,NC(=O)CNC(=O)NC(Cc1ccccc1)C(=O)O,1.3866,205.756,317.492751,0.64806519
BOYTOZ,CC(=O)OC1COC2OC3(C)OC2C1n1nnnc13,1.5132,190.657,294.1943734,0.64806474
GEJBED,Cc1cc(/N=C2\c3ccccc3CN2c2cc(C)on2)no1,1.3708,230.898,356.2896474,0.648062613
CUYMIS,O=C(c1ccccc1)N1OC2CCC1C=C2CO,1.3637,193.421,298.4686398,0.648044633
RUHQOA01,O=c1oc2ccccc2c2c(-c3ccccc3)c3c4ccccc4ccn3c12,1.3553,286.729,442.4553448,0.648040539
WABREZ,COC(=O)C(=C[C@H]1c2c(c3ccccc3n(C)c2=O)OC1(C(=O)OC)C(=O)OC)C(=O)OC,1.4224,347.35,536.0017829,0.648038889
COCRET,COC(=O)c1c(C(=O)OC)n(-c2ccc(OC)cc2)c2c1oc(=O)c1ccccc12,1.4037,312.097,481.6065351,0.64803315
BAMCEZ,O=C1C2CCCN2C(=O)C2(OO)CCCN12,1.4446,168.423,259.9016681,0.648025852
VEKPOQ,CN1CC(C)(C2(C)CN(C)C(=O)NC2=O)C(=O)NC1=O,1.4143,214.669,331.2661643,0.648025736
WUXQOW,O=C(NC(=O)c1ccc2ccccc2n1)c1ccc2ccccc2n1,1.3551,259.757,400.8438858,0.648025351
SAVDAX,CC1CC2=C(C(=O)N1)C1CC(O)(N2)C(C)NC(=O)/C=C/C(O)CCC(C)NC1=O,1.4043,311.286,480.361477,0.648024487
DMURID,CN(C)c1cn(C2OC(CO)C(O)C2O)c(=O)[nH]c1=O,1.4587,211.805,326.8511329,0.648016723
ZECFOE,COC(=O)c1c(-c2ccccc2)n[nH]c1Cc1cccc2ccccc12,1.3287,277.091,427.600223,0.648014162
ACBNZA01,CC(=O)Nc1ccccc1C(N)=O,1.3439,142.585,220.0387397,0.64799953
XIBTEJ,COC(=O)CC(C(=O)OC)n1nnnc1N,1.4478,170.26,262.7518173,0.647987907
WOYVOX,C=C1C(=O)Nc2ccccc2-c2c1c1ccccc1n2C(=O)OCC,1.3645,261.906,404.1861363,0.64798363
ULIKOQ,Oc1ccc2ccccc2c1-c1nc2c3cccnc3c3ncccc3c2[nH]1,1.375,283.382,437.3317043,0.647979548
PATSIM,O=C1OC(c2ccccc2)=N/C1=C/c1ccccc1,1.327,201.97,311.6959697,0.647971163
PIDSEB,O=c1[nH][nH]c(-c2ccccc2)c1Cc1c(O)n[nH]c1-c1ccccc1,1.3672,261.39,403.4015778,0.647964744
WUQXOV,COC(=O)C(C(=O)OC)c1cn(C(=O)OC)c2ccc(O)cc12,1.4187,243.526,375.8324557,0.647964263
HIYFAY,COc1ccc(-c2ccc3nc(-c4ccccc4)ccc3c2)cc1,1.2946,258.594,399.0917365,0.647956288
VAXFOS,COC(=O)C12CCCN3C(=O)CCC(Cn4c1c(C=O)c1ccccc14)C32,1.3913,283.173,437.0314841,0.647946453
VIJKUX01,COC(=O)C1(C(=O)OC)CC1N1C(=O)CCC1=O,1.419,193.414,298.5034259,0.647945663
ARAYOK,CCOC1=CC=C/C(=C/Nc2ncccc2O)C1=O,1.3585,204.423,315.496205,0.647941233
GOWYOG01,COc1ccc(N/C(C)=C2\C(=O)C=C(C)OC2=O)cc1,1.361,215.905,333.2182508,0.647938699
ERUBOJ,O=C1c2ccccc2C(=O)N1CCOCCN1C(=O)c2ccccc2C1=O,1.39,281.845,434.9887003,0.647936371
QATJAX,COc1ccc(C(=O)c2c(-c3ccccc3)c(C(=O)c3ccccc3)c3cc(-c4ccncc4)ccn23)cc1,1.3321,410.463,633.4971375,0.647931894
HOLGOF,N#Cc1ccc(/C=N/C(=O)/N=C/c2ccc(C#N)cc2)cc1,1.2821,240.084,370.5432622,0.647924344
XESYOM,CN1CC/C(=N\Nc2ccccc2)C1=O,1.3254,164.878,254.4723062,0.647921192
LAQFIU,CCOc1cc(/C=N/NC(=O)c2ccc(OC)cc2)ccc1O,1.3456,251.173,387.6625495,0.647916597
IGOXOT,COC(=O)c1ccccc1C(=O)c1c(N)c(C#N)c2c(c1C#N)CCCC2,1.3435,287.603,443.8900499,0.647914951
ARAXEZ,CN1C(=O)C2(c3ccccc31)C1C=CC=CC12,1.3138,182.704,281.9907026,0.647907886
NUNCAB02,O=C1c2ccccc2C(=O)N1c1cccc2cccnc12,1.3724,214.865,331.6290165,0.64790772
SUPKUK,COc1cccc(-c2nc3c4cccnc4c4ncccc4c3[nH]2)c1O,1.3883,265.132,409.2131733,0.647906806
DEZYUF,COC(=O)c1ccc(-c2ccc(C#N)cc2)cc1,1.2987,196.409,303.1441841,0.647906212
SANZEN,N#Cc1ccc(Oc2ccc3c(c2)CCC3)cc1C#N,1.3007,215.143,332.0625014,0.647899113
EFEJIJ,O=C1NC(c2ccccc2)C(C(=O)c2ccccc2)O1,1.353,212.388,327.8114527,0.647896827
VETMEN,COc1ccc(-c2c(C#N)c(N)nc(N3CCCCC3)c2C#N)cc1,1.3283,269.85,416.505134,0.647891174
QOFFIC,CCOC(=O)c1c2c(c(C(=O)OCC)n1C)C(=O)c1cc3ccccc3cc1C2=O,1.3832,315.113,486.3680788,0.64788997
FUQWOG,Oc1ccccc1/C=N/c1ccc(Nc2ccccc2)c2nonc12,1.3637,260.437,401.9824365,0.64788154
AXALAM,CC(=N\O)/C(C)=N/NC(=O)c1ccccc1O,1.357,186.391,287.6933714,0.64788076
QUSYUB,Cc1cccc2c1NC1Oc3cccc(C)c3NC1O2,1.3791,209.166,322.8497047,0.647874218
KAYWEN,Nc1ccn(C2OC(CO)C(O)C2OC2OCC(O)C(O)C2O)c(=O)n1,1.4957,269.827,416.4853849,0.647866671
CADLAY,COC(=O)CCCc1cc2ccccc2n1-c1ncccn1,1.3372,237.448,366.5093679,0.647863386
NANQUO,CN(C)c1c(N(C)C)c(=O)c1=O,1.311,137.938,212.9138449,0.647858292
QECRAU,CC1NC(=O)NC1=O,1.4284,85.894,132.5816895,0.647857184
FETWUZ,COC(=O)/C=C/N1c2ccccc2COC1c1ccccc1O,1.3608,245.964,379.6581628,0.647856478
GALNOZ,O=C1/C(=C/c2ccc(-n3cnc4ccccc43)cc2)CCc2ccccc21,1.3181,285.785,441.1240886,0.647856255
MOAZCD,CC1=NOC2C1C1ON=C(C)C21,1.3818,129.299,199.5823291,0.647847936
UPAJEB,Cc1[nH]nc2c1C(C)(c1ccccc1)C(C#N)=C(N)O2,1.3475,212.462,327.9506444,0.647847484
SAYYEZ,CC(O)(c1ccccc1)C(O)C(C)([N-][N+]#N)c1ccccc1,1.3079,244.417,377.2792378,0.647841109
RIRTET,O=C(N/N=C(/c1ccccc1)c1ccccn1)C(=O)N/N=C(/c1ccccc1)c1ccccn1,1.3436,358.838,553.9017739,0.647836885
MELKAP,COC(=O)C1(O)OC(C(=O)OC)(C([N-][N+]#N)c2ccccc2)N=C1c1ccccc1,1.3932,316.685,488.8383912,0.647831688
JEKNET,OC1CC2c3cc4c(cc3CNC2C(O)C1O)OCO4,1.449,207.217,319.8696915,0.647816925
XAFBUE,CC(/N=C/c1ccccc1NC(=O)c1ccc2ccccc2c1)c1ccc2ccccc2c1,1.2888,357.409,551.7151045,0.647814419
ZOCNIQ,O=C(Nc1cnc2ccccc2c1)Nc1cnc2ccccc2c1,1.351,250.121,386.1008834,0.647812556
WOMDAE,Cc1ccc2c(/N=N/c3ccccc3)ccc(OC(=O)c3ccccc3)c2n1,1.3505,292.442,451.4324522,0.647808988
WEHQIK,N#Cc1ccc(C#Cc2cccc(-c3nnc(-c4cccc(C#Cc5ccc(C#N)cc5)c4)o3)c2)cc1,1.2955,392.046,605.1895653,0.647806939
FANWIA10,COC(=O)/C(C#N)=C/c1ccc(/C=C/c2ccccn2)cc1,1.2943,241.116,372.2083282,0.647798509
NIQPIN,COc1cccc(CC(=O)NN)c1,1.327,145.99,225.3634143,0.647798137
MUGRIR,CC(=O)c1ccc2nc(C(=O)c3ccccc3)c(C(=O)c3ccccc3)n2c1,1.34,295.513,456.1892411,0.647785992
XOTPAZ,Cn1c(CN/C=C2\C(=O)C=Cc3ccccc32)nc2ccccc21,1.3292,255.037,393.7080736,0.647781991
GATCAF,O=C1NC(C(O)CO)C1O,1.4459,109.401,168.8889092,0.647769001
KEDJAE,CC1=N/C(=C(/C)c2ccccc2)C(=O)O1,1.3157,164.396,253.7901891,0.647763417
KOTBEA,N#Cc1ccccc1C(=O)c1ccccc1,1.2789,174.164,268.8699727,0.647762925
DODBOO,Oc1ccc2ccccc2c1/C=N/OCCO/N=C/c1c(O)ccc2ccccc12,1.3548,317.693,490.4608173,0.647743895
KUSJAK,Cc1cc(C=O)c(O)c(-n2nc3ccccc3n2)c1,1.3711,198.548,306.5226177,0.647743391
WEDMOK,O=C1CC(c2cc3ccccc3n2-c2ccccn2)C(=O)N1c1ccccc1,1.354,291.655,450.2655293,0.647740013
FULMUU,N#[N+][N-]C1CCC(c2ccccc2)CNC1=O,1.3337,185.59,286.5201271,0.647738091
RIQRUH,COC(=O)c1ccc(Nc2c(O)ccc3ccccc23)cc1,1.3518,233.225,360.061018,0.647737434
FITTOR,CC1C=CC(C)n2c(=O)c3cc4ccccc4cc3c(=O)n21,1.3545,231.976,358.1368975,0.647729965
PEGLAO,CC12Oc3ccccc3C1(c1ccccc1)C(C#N)(C#N)C(C#N)(C#N)O2,1.3334,284.027,438.4960703,0.647729864
TUZLEI,CC(=O)N1C(=O)C(=O)c2cc(-c3cccc(-c4ccccc4)c3)ccc21,1.3386,274.092,423.1579889,0.647729706
YAGLIC,COc1ccc(N2CC(=O)N(c3ccc(OC)cc3)CC2=O)cc1,1.3665,256.705,396.3160824,0.647727941
NOFZOX,COC(=O)Cn1cnc2c(N)nc(OC)nc21,1.4367,177.499,274.0344719,0.647725079
SAQJAW,O=C(c1cccnc1)N1CCN(C(=O)c2cccnc2)CC1,1.3545,235.151,363.0483847,0.647712564
XIYYAG,Cc1nn(-c2ccccc2)c2c1c1ccccc1c(=O)n2C,1.3377,232.471,358.9109538,0.64771219
SOCKON,CN(CC1(O)OCC(O)C(O)C1O)c1ccccc1,1.3966,207.265,319.9994068,0.647704326
UTOCAI,CC(=O)CC(=O)Nc1ccc2[nH]c(=O)[nH]c2c1,1.3953,179.669,277.397489,0.64769512
AWATOH,c1cc2ncc1C1CCC1c1ccc(nc1)OCCCO2,1.3492,224.915,347.2549779,0.647694099
DONTAB,O=c1o[n-]c2c1C[NH2+]CCC2,1.3957,118.733,183.3170899,0.647691932
NEDFIO,COc1ccccc1Oc1cnc(C#N)c(C#N)n1,1.3485,201.044,310.4031762,0.647686671
NAJKOB,Cc1ccc(-c2noc(Cn3ccc(=O)n(Cc4nc(-c5ccc(C)cc5)no4)c3=O)n2)cc1,1.3872,353.673,546.0570459,0.647685077
ZOHTEY,N#C/C(=C\c1ccc(-c2cc3ccccc3o2)o1)c1cc2ccccc2o1,1.3472,280.294,432.763729,0.64768367
HAXQAZ01,C/C(=N\NC(=O)c1ccccc1N)c1ccccc1O,1.3414,215.777,333.1554631,0.647676607
BARGOT,O=C1OC(c2c[nH]c3ccccc23)c2ccccc21,1.3549,197.72,305.2775495,0.647672914
CACRAC,c1cc(N2COc3ccc4ccccc4c3C2)c2ccncc2c1,1.3393,250.65,387.0058035,0.647664706
DOLFIT,COC(=O)c1cc2cnc1CCc1ncc(cc1C(=O)OC)CC2,1.3752,255.054,393.8088473,0.647659396
ZEMHOO,CC(C(=O)O)C1Cc2c(cc3c(c2O)CN(CC(=O)O)C3=O)O1,1.4543,237.45,366.6324039,0.647651428
FOHJER,CC1(C)C(=O)OC2(N3C(=O)C(=O)c4ccccc43)C(=O)c3ccccc3N2C1=O,1.4253,294.345,454.4835895,0.647647147
GURGAB,C=CCn1c(=O)c(=O)n(CC=C)c2ccccc21,1.3218,196.989,304.1613249,0.647646442
CIWNUS,COCOc1ccc2ccccc2c1-c1c(OCOC)c(Cn2nnc3ccccc32)cc2ccccc12,1.3478,403.124,622.4479742,0.647642882
AMEXUL,CCOC(=O)c1cccc(-c2cc(-c3cccc(C(=O)OCC)n3)ncn2)n1,1.3721,296.386,457.6396299,0.64764059
ZEQZAW,O=C1OCC2N1CCC1CC3OC12C(O)C3O,1.4772,175.526,271.0278869,0.647630773
MECVIC,N#[N+][N-]C1OC(COCc2ccccc2)C(OCc2ccccc2)C(OCc2ccccc2)C1[N-][N+]#N,1.3452,399.91,617.499768,0.647627774
NAGFOS,COC(=O)c1onc(C)c1C1=C(C(C(=O)OC)C(=O)OC)CCO1,1.4204,256.741,396.4389246,0.647618042
TOHHOQ,CCN(CC)c1ccc2cc(-c3nc4ccccc4c(=O)[nH]3)c(=O)oc2c1,1.366,284.323,439.0288949,0.647617966
EMIJOZ,COc1nc(OC)nc(Oc2cccc(O)c2C)n1,1.4077,200.992,310.3560846,0.647617398
DUNDEW,O=C(OCCN1C(=O)c2ccccc2C1=O)c1ccccc1C(=O)OCCN1C(=O)c2ccccc2C1=O,1.4076,391.27,604.1700313,0.647615704
WACYEG,CC(=O)c1ccc2c([nH]c3c(C)cccc32)c1O,1.3415,191.672,295.9676036,0.64761142
HIFNOZ,Cc1ccc2c(N)nc3c(c2n1)CCO3,1.3739,157.401,243.0529194,0.647599709
QEVTET,Cc1ccc(/N=C/c2ccc(C(=O)O)cc2)cc1,1.3084,196.516,303.4550141,0.647595165
CEBXIS,COc1ccc(N2C(=O)c3ccccc3C2(O)C(O)c2ccc3ccccc3c2)cc1,1.3586,325.441,502.5399711,0.647592269
BICVEO,CC(=O)c1cn(C2OC3COC(C)(C)OC3C2O)c(=O)[nH]c1=O,1.4651,239.366,369.6270509,0.647587885
HUFTUX,O=c1ccccc2c(-c3ccccc3)c[nH]c12,1.3077,181.808,280.7464989,0.647587773
HEXGAS,N#Cc1c(N)c(C#N)c(-c2ccccc2)c(O)c1-c1ccccc1,1.3105,255.29,394.2177753,0.647586223
KUMMIO,COC1(C)N(C)C(=O)N(c2ccccc2)C(=O)C1(O)O,1.4094,213.722,330.0297242,0.647584094
LACKEI,CCNc1ncnc2c1ncn2C1C=CC(=O)C1,1.3843,188.858,291.6360644,0.647581089
COZSER,Cc1ccc2[nH]c3c4ccccc4c(=O)oc3c2c1,1.3668,195.965,302.6196604,0.647562025
NUKVAT,CCOC(=O)c1c(C)cn2c1-c1ccccc1C2=O,1.3544,202.53,312.7596689,0.647557918
NEPYEO,COc1cccc2c1OC(=O)C1C(c3ccccc3)Oc3c(c(=O)n(C)c(=O)n3C)C21,1.4185,318.492,491.8374521,0.647555404
VUCVOE,CNC(=O)/C=C\c1ccccn1,1.2833,135.813,209.7318686,0.64755538
MIBGEK,O=C1C2C3C=CC(c4ccccc43)C2C(=O)N1c1ccccc1,1.3585,238.344,368.0704666,0.647549917
ENALEM,COc1ccc(C(=O)Cc2oc(=O)[nH]c2-c2ccc(OC)cc2)cc1,1.3747,265.256,409.6364174,0.647540084
TUMRIF,CCOC(=O)c1ccoc1-c1ccc(C#N)cc1,1.3313,194.714,300.704054,0.64752702
SACPUH,COc1cc2cc[nH]c2cc1OC,1.3368,142.437,219.9710891,0.647526003
ZIMMAM,COc1ccccc1C1(O)c2ccccc2C(=O)c2c3ccccc3nn21,1.3725,278.996,430.8680387,0.64752076
BANXAR,N#C/C(=C\c1ccccc1)C(N)=O,1.2863,143.835,222.1324096,0.647519199
CAJHAZ,COc1ccc2c(c1OC)C(=O)OC2C1c2c(c([N-][N+]#N)c3c(c2OC)OCO3)CCN1C,1.4243,342.856,529.4948949,0.647515214
VOSDUC01,O=C(N/N=C/c1ccco1)c1ccccc1,1.3348,172.444,266.3257884,0.647492686
GOHJUJ,CC(=O)C(C(C)=O)C1Oc2ccccc2C1c1cc(C#N)c(C#N)cc1C#N,1.3189,300.916,464.7405363,0.647492475
YEJSUD,CCOC(=O)c1nc(-c2ccccn2)c(C(=O)OCC)nc1-c1ccccn1,1.3716,296.426,457.8064568,0.64749196
LEFWIE,Oc1ccccc1CNc1cnccn1,1.3404,161.308,249.1274291,0.64749193
XINYEA,O=C1c2ccccc2C(=O)N1CCCn1ccnc1,1.3558,202.308,312.4504718,0.64748822
JENPAT,CC1(C)OC(=O)C(=[N+]=[N-])C(=O)O1,1.4529,125.832,194.339869,0.647484228
ZEKLAE,O=c1ccc2cc(/N=C/c3c4ccccc4cc4ccccc34)ccc2o1,1.3304,282.145,435.7580644,0.647480846
WAFJIA,CC(=O)Nc1ccc(OC(=O)c2cccnc2)cc1,1.3541,203.34,314.0494838,0.647477581
ZAPZIB,COC(=O)c1c(C(=O)OC)c2c3ccccc3ccn2c1C(=O)C1CC1,1.3739,274.775,424.3790545,0.647475405
FEPFOV,O=C1NC2(CCCC2)C(=O)NC1CO,1.4037,151.738,234.356055,0.647467803
ZARBEB,N#CC1=C(c2c[nH]c3ccccc23)OC(C(=O)c2ccccc2)C1c1ccccc1,1.3252,316.53,488.8780684,0.647462057
ECONUG,Nc1ccc(C(=O)NNC(=O)c2ccccn2)cc1,1.3795,199.599,308.28058,0.647458883
EXIZIV,Cc1ccc(O)c(/N=C2/C(=O)Nc3ccccc32)c1,1.3496,200.828,310.1811284,0.64745396
KUXSEC,CC(=O)Nc1noc(C)n1,1.3961,108.628,167.7773686,0.647453235
ETEYUX,Oc1ccc(/N=C/c2ccccc2O)cc1,1.3301,172.238,266.0243229,0.647452076
EVEMAU,O=C(N/N=C/c1c(O)ccc2ccccc12)c1cccnc1,1.3538,231.183,357.0704311,0.647443697
TOZJID,N#Cc1ccc(Oc2ccc(C(=O)O)cc2)cc1C#N,1.3433,211.338,326.4253919,0.647431251
ZILQIU,O=C1N2CCCN1CCN1CCCN(CC2)C1=O,1.4001,193.63,299.0747905,0.647430028
ASEDIO,N#[N+][N-]CC(=O)Nc1ccccc1,1.3399,141.276,218.2114545,0.647427058
IMIJAR,COc1cc(/C=C\c2ccc3c(c2)oc(=O)n3C)cc(OC)c1OC,1.363,269.076,415.6084897,0.647426621
TEZHAH,CCn1c(=O)c(C(=O)c2ccccc2)c(O)c2ccccc21,1.3521,233.06,359.9811287,0.647422827
COMHER,CC(=O)OCN1C(=O)C2C3C=CC(C2C1=O)C1C2C(=O)N(COC(C)=O)C(=O)C2C31,1.4465,309.28,477.7131947,0.647417747
DOZKUB,O=C1/C(=C/c2ccccc2)CCn2c1ccc2-n1ccnn1,1.3423,232.365,358.9122353,0.647414541
YEGTIO,O=C1C(=O)N2CCN3CCN4CCN1C2C43,1.4537,164.264,253.7240481,0.647412026
NEQQEG,CN1C(=O)c2ccccc2C1=O,1.3454,128.688,198.7778913,0.647395941
DADRIL,COC(=O)/C=C1/C(=O)N(Cc2ccccc2)c2ccccc21,1.3216,238.427,368.2888046,0.647391387
VEMFIC,COC(=O)C1(C)NC(C2C(N3C(=O)c4ccccc4C3=O)C(=O)N2c2ccc(OC)cc2)C2C(=O)N(C)C(=O)C21,1.4129,415.572,641.9267541,0.647382271
ZEVZEI,Cc1cc(=O)oc2cc(OCc3cn(Cc4ccccc4)nn3)ccc12,1.3637,273.649,422.7022673,0.647380015
IKOXOX,CCOC(=O)C1=C(C)N(c2ccccc2)c2cc(C)c(C(=O)OCC)c3cc(C(=O)OC)cc1c23,1.3529,375.996,580.8035188,0.647372111
HUPNUE,N#CCC(=O)N/N=C/c1ccccc1,1.2942,155.391,240.0371021,0.647362423
UQILOW,C1=Cn2c(nc3ccccc32)COC1,1.3571,147.4,227.6938377,0.647360515
AMXZPY10,Cc1nc(-c2cccnc2N)no1,1.3792,137.236,211.9935673,0.647359266
PAVSOW,N#CC(C#N)=Cc1ccc(OCc2ccccc2)cc1,1.2689,220.35,340.3843452,0.647356446
HADYUG,CC(C)=CC[C@@]1(O)C(=O)C=C(O)c2c1n(C)c1ccccc1c2=O,1.3578,257.413,397.6382503,0.647354725
LEVWUH,COc1ccc(/C=C/C(=O)c2ccc(/N=C/c3ccc(OC)cc3)cc2)cc1,1.2982,307.338,474.7614001,0.647352544
QQQAUJ06,[NH3+]C(Cc1ccccc1)C(=O)[O-],1.3186,134.58,207.894852,0.647346477
FUZTEA,COc1cc2c(cc1OC)C(=O)C1(C2)OC1c1ccncc1,1.3705,233.037,359.988646,0.647345417
ZIKKEJ,Cn1nnnc1C1CCCN1C(=O)C(Cc1ccccc1)NC(=O)C1CCC(=O)N1,1.3755,321.361,496.4317373,0.647341771
MOMXIX,CCC1(CC(=O)O)CCC(=O)n2c1c(/C(=N/OC)C(=O)OC)c1ccccc12,1.3787,301.078,465.1026431,0.647336678
BOGSEW,CC(/C=C/c1ccco1)=N\NC(=O)c1ccncc1,1.3265,206.728,319.351941,0.647335975
YOVQUX,O=CN(Nc1ccccc1)c1ccccc1,1.3,175.378,270.9268427,0.647326039
RUGKAG,CC1=NOC(=O)/C1=C\c1ccc(N(C)C)cc1,1.3125,188.456,291.1338966,0.647317273
JUCPUU,CN(C)c1ccc(/C(O)=C/C(=O)c2ccccc2O)cc1,1.3253,229.635,354.7502245,0.647314601
XATLEK,O=C1C/C(=C2\C(=O)N(Cc3ccccc3)c3ccccc32)C(=O)N1Cc1ccccc1,1.3475,325.587,502.9829758,0.647312167
PAJFAK,O=C(NCCNC(=O)c1nccc2ccccc12)c1nccc2ccccc12,1.347,295.379,456.3173167,0.647310521
FIBBAV,CC1(c2c(O)cccc2O)Nc2cccc3cccc(c23)N1,1.3711,229.019,353.80091,0.647310376
RULKIV,CCOC(=O)/C=C1\NC(=O)C=C1c1cccc(OC)c1,1.3454,218.195,337.0819379,0.647305523
BUYTOE10,N#Cc1cnn2ccn(C3OC(CO)C(O)C3O)c12,1.4358,197.708,305.4331875,0.647303594
MAYTOX,O=C1OCCC2N=C(c3ccccc3)c3ccccc3-n3cnc1c32,1.3754,257.21,397.3613046,0.647295036
QITGOQ,CC(C)C(=O)N1C(=O)c2ccccc2C1O,1.354,173.928,268.7002184,0.647293854
WODQEN,N=c1oc2ccccc2cc1-c1ccccc1,1.3061,181.947,281.0904193,0.647289938
WAXPES,COc1ccc(N2C(=O)C3CN(C)C4(C(=O)Nc5ccccc54)C3C2=O)cc1,1.3937,290.865,449.3611435,0.647285606
RERMIM,Cc1ccc(-c2cc3nc4ccc(C)cc4cc3c(=O)o2)cc1,1.3327,242.853,375.1960148,0.647269668
TESKEJ,CN(C)c1ccc(C(=O)N/N=C/c2cccc(O)c2)cc1,1.3254,229.609,354.7375334,0.647264466
FUDFIW,COC(=O)c1ccc(-c2nc3[nH]c4ccccc4c3c3c2COc2ccccc2-3)cc1,1.367,319.332,493.3594524,0.647260326
CIZXIS,O=c1c2cc3ccccc3cc2c(=O)n2n1CCCC2,1.3769,207.727,320.9345916,0.647256498
GABCAP,COc1ccc2nc3c(cc2c1)COc1ccccc1-3,1.3541,208.832,322.6459939,0.64724808
SOHZEU,Cn1c(=O)c2c(nc3n2CCC(=O)N3Cc2ccccc2)n(C)c1=O,1.408,258.88,399.9747808,0.647240807
GAJNAG,CN1CCCn2c1c(C=O)c1ccccc12,1.3334,172.585,266.6507306,0.647232429
QOTROH,CCOC(=O)Cc1c(O)c2ccccc2n(C)c1=O,1.3647,205.633,317.7129326,0.647228925
LESTEK,CC1(C)CC(=O)c2cc3c(=O)c4ccccc4oc3nc2C1,1.3682,230.247,355.7451279,0.647224605