name,smiles,Density,Vint,Veff,pc
BENQIX,CCOC(=O)c1cc2c(=O)oc3ccccc3c2nc1N,1.4475,215.865,325.9017348,0.66236223
TAFZUW,NC1OCC(O)C(O)C1O,1.4959,109.607,165.4814241,0.662352289
HALBUT,COC(=O)c1cc(C(=O)C2CC2)n2ccccc12,1.3756,194.361,293.4533989,0.66232322
RADSOF,CCN1C(=O)CN(N=O)c2ccccc2C1=O,1.4223,180.239,272.131559,0.662323035
MEHROH,O=C1C(=O)N(Cc2ccccc2)c2ccccc21,1.3626,191.363,288.9280433,0.662320617
SIJWOA,COC1CC2(O)C(=O)C=CC1C1C(=O)N(C)C(=O)C12,1.4601,199.686,301.4977019,0.662313506
YIRQOG,COc1ccc(O)c(/C(C)=N/N=C(\C)c2cc(OC)ccc2O)c1,1.3733,262.793,396.7910255,0.662295725
PUGGIK,O=C1C=C2c3ccccc3C(=O)N2CC1,1.4047,155.856,235.3275171,0.662293989
OYINUG,COC(=O)c1nn(-c2ccccc2)c2c1CCC2=O,1.4032,200.713,303.0604376,0.66228704
KERCIU,c1ccc2c(c1)nnn2OCOn1nnc2ccccc21,1.4563,213.03,321.6596038,0.662283972
GIRKOI,Cc1nc(N)c2c(c1C)COC2=N,1.3841,140.713,212.4673116,0.662280701
YUVJOQ,c1ccc2c(-c3nc4c5ccccc5c5nc6ccccn6c5c4o3)cccc2c1,1.397,303.175,457.7901095,0.662257645
ZUDVEC,CN1C(=O)C2(OC(=O)C3C(=O)Oc4ccccc4C32)c2ccccc21,1.4579,252.759,381.6673338,0.662249497
DBODIM,O=C(/N=N/C(=O)c1ccccc1)c1ccccc1,1.3503,193.895,292.7838719,0.662246177
WEHFEU02,O=C(N/N=C/c1ccccc1O)c1ccncc1,1.3857,191.329,288.9124351,0.662238716
SINJAD,O=c1c2cnn(-c3ccccc3)c2ncn1Cc1cn(-c2ccccc2)nn1,1.4101,287.873,434.7093127,0.662219538
QOVRIF,c1ccc(C2=Nc3c(c4ccccc4c4ccccc34)OC2)cc1,1.3682,248.449,375.1768555,0.662218355
ACANLC10,Cc1nc2ccccc2c(=O)[nH]1,1.3764,127.883,193.1137159,0.662216039
ISAJOB,COc1ccc(C(=O)[N-][N+]#N)cc1,1.3889,140.183,211.6895271,0.66221037
PAMBAH,c1coc(-c2n[nH]c(-c3ccco3)c3cccc2-3)c1,1.4042,195.839,295.7365491,0.662207632
HUFQEF,O=C(OCCOC(=O)c1cccnc1)c1cccnc1,1.4051,212.933,321.5540255,0.662199765
ROHFIF,CC(C)(C=O)C1(O)C(=O)Nc2ccccc21,1.383,174.201,263.0658682,0.662195371
BUSTAL,N#CC12C(=O)C34C=CC=CC35OC1C1CCC2C4C15,1.423,194.036,293.0201971,0.662193262
QATGIC,c1cc2ncc1C1CCC1c1ccc(nc1)OCCO2,1.3901,212.089,320.2949627,0.662167766
NEDMUF01,COC1=CC=C/C(=C/Nc2ccccc2O)C1=O,1.3776,194.033,293.0273632,0.662166829
HENJAL,COc1cc2c(cc1OC)CCN1C(=O)c3cnccc3C1=C2,1.4023,241.603,364.8702723,0.662161372
EXUPIY,COC1=CC(=O)/C(=C\Nc2ccc(C(=O)NCC(=O)O)cc2)C=C1,1.4108,255.725,386.2012287,0.662154807
QIYYAB,C/C(=N\NC(=O)CC#N)c1cc2ccccc2o1,1.368,193.779,292.6505565,0.662151483
DUMWOY,Cc1ccc(N/C=C2\C(=O)C=Cc3ccccc32)nc1,1.3426,214.663,324.1925249,0.662146667
MIRZUL,Cc1ccc2ncc3c(c2c1)C(=O)N(C)C3=O,1.3993,177.64,268.2904754,0.662118175
USOBIQ,CC(C)C1=NOC(=O)/C1=C\c1ccc(O)cc1,1.3638,186.306,281.3809177,0.662113129
FOZHOT,N#CCc1nc2c3c(ncn2n1)OC1=C(C(=O)CCC1)C3c1ccccc1,1.4149,277.512,419.1375699,0.662102422
GEXQOR,O=C1C=C(Nc2ccccc2)c2ccccc2/C1=N/O,1.3801,210.391,317.7651263,0.66209594
MEBZOL,O=C1NN=C(c2ccc3ccccc3n2)Nc2ccccc21,1.3961,226.887,342.6836938,0.662088696
CABWUA,Cc1ccc(O)c(/C=N/NC(=O)c2ccc(O)cc2)c1,1.3779,215.519,325.5162164,0.662083759
BENZAN,O=C(c1ccccc1)c1onc2ccccc12,1.3595,180.396,272.4670565,0.662083711
VACJOB,O=C(c1ccccc1)c1cnn2c(=O)n(Cc3ccccc3)c3ccccc3c12,1.3767,302.78,457.3158471,0.662080708
JIBGUW,N#CC(=C=[N-])/C(C#N)=C(/C(=O)c1ccccc1)[n+]1ccccc1,1.328,246.782,372.7415034,0.662072771
DUCWAA,C#CCN1C(=O)C(CC#C)(CC#C)C(C)=Nn2cnnc21,1.3316,230.443,348.0725473,0.662054511
MIYKIO,N#[N+][N-]C1C2OCC(O2)C2OC12,1.5246,121.903,184.1285187,0.662053879
NUPREW,COc1ccc(/C=N/NC(=O)c2ccc(O)cc2O)c(O)c1,1.4289,232.429,351.0750261,0.66204937
XAPBOF,CN(c1ccccc1)c1cccc2c1C(=O)c1ccccc1C2=O,1.3631,252.536,381.4473839,0.662046748
IDOFIS,Oc1ccccc1Cn1c(-c2ccncc2)nc2ccccc21,1.361,243.24,367.4080698,0.662043161
WUHDOV,O=C(/C=C/c1ccc(/C=C/C(=O)NCc2cccnc2)cc1)NCc1cccnc1,1.3328,328.44,496.1045937,0.662037812
EZIFUQ,N#CCc1c(-c2ccccc2)c2ccc(-c3ccccc3)cc2oc1=O,1.3354,277.527,419.20423,0.662032919
IGACUR,CN(C)c1ccc(/N=C/c2c(O)ccc3ccccc23)cc1,1.3247,240.787,363.7122828,0.662026034
WUQVOV,O=C1NCCN1c1ccc2ccccc2n1,1.3996,167.376,252.8276693,0.662016149
DIHTET,CC1=CC(=O)c2cnn(C)c2C1=O,1.3948,138.764,209.6091726,0.662013014
WEGBUH,CC(NCc1ccc(C(=O)O)cc1)C(=O)O,1.3878,176.715,266.9361945,0.662012135
LOPVUJ,O=C1c2ccccc2-c2c/c(=N\c3ccccc3)n(-c3ccccc3)nc21,1.3623,281.73,425.5679241,0.66200948
RILBIX,C[C@H]1C[C@H](C#N)C(=C(C#N)C#N)NC1=O,1.3365,164.565,248.5865529,0.662002824
UDIJOJ,COc1ccc(CN2C(=O)c3ccccc3C2=O)cc1OC,1.3925,234.548,354.3012131,0.662001685
NEJJIX,COc1ccc(C2N/C(=C(/C#N)C(C)=O)Oc3cc(C)oc(=O)c32)cc1,1.4081,274.888,415.2454325,0.66198922
WOTHUK,Cn1c(=O)c2c(-c3ccccc3)c(N(N)C#N)ncc2n(C)c1=O,1.416,250.071,377.760493,0.661982935
QURQEZ,CC(=O)N1C(=O)C(O)(c2coc3ccccc23)c2ccccc21,1.4155,238.483,360.2574714,0.661979331
VITHOY,Cc1ccc2nc(C)c(C(=O)/C=C/c3ccccc3O)n2c1,1.3529,237.359,358.5604463,0.661977646
UXOKEY,N#Cc1cccc(C#N)c1/C=C1\OCc2cc3ccccc3nc21,1.3553,250.7,378.7170413,0.661971796
MIRVAM,COc1ccc2c(c1)C1NC(=O)c3ccccc3N1C(C1CC1)=N2,1.3947,251.526,379.974709,0.661954583
XAZHIS,COc1cc(/C=C2/C=CC(=O)O2)c(Cc2nc3ccccc3c(=O)n2N)cc1OC,1.4162,314.459,475.0480022,0.661952052
QAQPON,COc1ccc(-c2c(C#N)noc2C#N)cc1,1.3631,181.488,274.1723896,0.661948493
WEGTIO,Nc1ncccc1C=O,1.3665,98.177,148.3153531,0.661947654
VEYVOK,O/N=C(\C=N\O)c1ccccc1,1.3681,131.812,199.1343278,0.661925051
VURWEN,COC(=O)C1=C(C[N-][N+]#N)N(C)C(=O)NC1c1ccc(OC)cc1,1.4127,257.641,389.2342652,0.661917573
SOWREB,CC(=O)N1C=CN(C(C)=O)C1,1.371,123.522,186.6197391,0.661891398
FOZHEH,CCOC(=O)/C(C#N)=C1\NC(c2ccccc2)=CC1=O,1.3658,215.737,325.9493381,0.661872797
PABHIJ,Cc1ccnc2c1NC(=O)c1cccnc1N2C1CC1,1.3913,210.224,317.6263159,0.661859517
AFAPUT,CC1=CC=C(C#N)C(O)C1O,1.3419,123.728,186.9407283,0.661856841
UNOJIQ01,Cc1nc2ccccc2[nH]c1=O,1.3758,127.869,193.1979347,0.661854901
OYUHOH,Cn1c(=O)oc2cc(-c3nn(-c4ccccc4)cc3C=O)ccc21,1.4131,248.185,374.9842933,0.661854388
BUNZIV,O=C(/C=C/c1ccccc1)NCCNC(=O)/C=C/c1ccccc1,1.312,268.193,405.2173816,0.661849694
FUDYOS01,C1CN2COOCN1COOC2,1.5014,128.894,194.7502073,0.661842685
HESXUZ01,CC(C(=O)O)N1C(=O)c2ccccc2C1=O,1.4354,167.722,253.420422,0.661833007
MIGNUL,O=C(O)c1ccccc1Nc1ccccc1C(=O)O,1.4127,199.992,302.1791337,0.661832594
DUFXAD,COc1c(C2OC(CO)C(O)C2O)nn(C)c1C(N)=O,1.4822,212.889,321.6689702,0.661826349
BOQLIC,Nc1ncnc2c1cnn2C1CC(O)C(CO)O1,1.4838,185.984,281.0215085,0.661814112
FOMZOZ,COc1ccc(/C=N/NC(=O)c2ccccn2)c(O)c1,1.404,212.201,320.6420975,0.661800187
ISOBUP,O=C1CC2OC3c4ccccc4N4C(=O)COC24C3C1,1.4773,201.663,304.7199965,0.661797724
BIVRAA,C/C(=C/C(=O)c1ccccc1)Nc1ccc(C(=O)O)cc1,1.3572,227.621,343.9458327,0.661793162
REKCUF,O=C(O)CCNC(=O)C(=O)NCC(=O)O,1.4936,160.441,242.4345762,0.661790915
KAQHAO,COc1ccc(/C=N/c2ccc3ncccc3c2)c(O)c1,1.3696,223.149,337.1948301,0.661780609
MIYMUF,Cc1cc(=O)oc2cc(OCC(=O)NN)ccc12,1.4322,190.353,287.6422017,0.66177007
CENWAU,O=NN1CCc2cc3c(c4c2C1Cc1ccccc1-4)OCO3,1.4488,223.079,337.0949713,0.661768994
LOHYIQ,CC(=O)N1C(=O)/C(=C\c2ccco2)c2ccccc21,1.3897,200.121,302.4066396,0.661761264
PEXMIQ,COc1ccc2c(c1)c1c3c4ccccc4n4c5ccc(OC)cc5c(c5c6ccccc6n2c51)c34,1.4031,363.518,549.3347621,0.661742211
CILBUV,O=C(ON1C(=O)CCC1=O)c1ccccc1,1.4296,168.378,254.4485687,0.661736872
WAMKII,O=C(c1ccccc1)c1c[nH]c(=O)c2ccccc12,1.3657,200.415,302.8634047,0.661733959
SILTUC,COc1ccccc1NC(=O)Nc1ccccc1OC,1.3726,217.849,329.2117025,0.66172921
MAPMEW,Nc1cc(C(=O)c2ccccc2)c(N)cc1C(=O)c1ccccc1,1.3535,256.648,387.8469359,0.661724965
ISOBID,COC12C=CC34c5ccccc5C(=O)N3c3ccccc3C(O1)C4C2,1.4189,256.432,387.5250352,0.661717248
GABTAI,O=C1c2ccccc2C(=O)C1(O)c1ncc2ccccn12,1.4213,214.979,324.886806,0.66170431
MACKOR,Cc1nn(C2CC(O)C(CO)O2)c(N)nc1=O,1.4793,179.831,271.772973,0.661695672
QIXXAY,CN1CC2(OC34OC5(OC13C(=O)c1ccccc14)C(=O)c1ccccc1C5=O)C(=O)c1ccccc1C2=O,1.4704,378.943,572.6895054,0.661690142
FUYNET,Oc1ccccc1-c1nccc(-c2ccccc2)n1,1.3527,201.525,304.5660498,0.661679134
FONBEQ,CC(=O)c1oc2ccccc2c1NC(=O)c1ccccc1,1.3782,222.504,336.2763717,0.661670039
QUINOX,O=C1C=CC(=NO)C=C1,1.3787,98.051,148.1881384,0.661665644
LONSEO,O=C1CCC(=O)N1C(=O)c1ccccc1,1.4004,159.316,240.7872883,0.661646224
CGLYTP,O=C1CNC(=O)C(Cc2c[nH]c3ccccc23)N1,1.4086,189.621,286.5917576,0.661641499
NAGPOE,COC1CN2C(=O)c3ccccc3C2=C2c3ccccc3C(=O)N21,1.4213,245.904,371.6580557,0.661640441
CACDEQ,CC(C(=O)O)N1Cc2ccccc2C1=O,1.4021,160.697,242.8826098,0.661624149
ADASAA,O=C(Nc1ccccn1)c1ccccc1O,1.3906,169.136,255.6390495,0.66162036
AZUJOV,Nc1ccc(-n2c(-c3ccccc3O)nc3cc4c(cc32)nc(-c2ccccc2O)n4-c2ccc(N)cc2)cc1,1.4015,410.922,621.1059582,0.66159726
YASJIM,Cc1cn(Cn2nnc(CO)c2CO)c(=O)[nH]c1=O,1.4726,199.267,301.1957555,0.661586348
CICTEO,O=C(N/N=C/c1c(O)ccc2ccccc12)c1ccc(O)cc1,1.3909,241.778,365.4543062,0.661582025
ANABOJ,Nc1ccc(C(=O)C(=O)c2ccccc2)cc1C=O,1.3714,202.733,306.4419624,0.661570623
KIYNAJ,COc1ccc(OC(=O)Nc2ccccn2)cc1,1.3895,192.984,291.7072372,0.661567405
OKUYIE,CC(=O)c1cccc(N/C=C2\C(=O)C=Cc3ccccc32)c1O,1.3733,244.073,368.9344528,0.661561961
YELQOW,Cc1c(O)ccc[n+]1[O-],1.3881,98.967,149.5959764,0.661561911
FIHZON,COc1ccc(-c2nnnn2-c2cc(OC)c(OC)c(OC)c2)cc1,1.4015,268.179,405.3840428,0.66154306
BILBON10,N#CC1(C#N)OC(C#N)(C#N)C2C1C=CC1C2C(C#N)(C#N)OC1(C#N)C#N,1.3764,292.167,441.6459702,0.661541188
LOVPAQ,Oc1ccc(-n2cc(COc3ccccc3)nn2)cc1,1.3832,212.133,320.6676907,0.66153531
COCKEM,COC(=O)c1c(-c2ccccc2)cn2c1c(=O)oc1cc(C)ccc12,1.4018,261.037,394.5969748,0.661528133
MURREY,O=C1CCCc2nc3ncccn3c21,1.4148,145.255,219.5759242,0.661525167
NIBPOD,CCOC(=O)/C(C#N)=c1\cc2c(n1N)=CC=CC=C2,1.3625,205.677,310.9140181,0.661523727
ZAQDON,COc1ccc(C2=CC3=NCCN3C(=O)C2(C#N)c2ccccc2)cc1,1.3631,276.528,418.0215147,0.661516191
XITSOK,N#CC1(C#N)C(C(=O)c2ccccc2)C1c1ccccc1,1.3048,229.077,346.2913057,0.661515309
PBBXAZ,c1ccc(C2=Nc3cc4c(cc3=N2)N=C(c2ccccc2)N=4)cc1,1.3776,245.685,371.4003699,0.661509842
LAYCET,Nc1ccc(C(=O)NCC(=O)O)cc1,1.405,151.732,229.374532,0.661503257
CIWDIW,O=c1oc2ccccc2c2nn(-c3ccccc3)cc12,1.4029,205.208,310.2148851,0.661502751
KODZUZ,c1ccc(-c2noc(Cn3nnc4ccccc43)n2)cc1,1.4015,217.184,328.3240922,0.66149273
NOLCAS,N#CCC1(O)OC(=O)c2ccccc21,1.4078,147.505,222.9891533,0.661489574
PEDDOS,O=C(Nc1ccncc1)c1cccnc1,1.3687,159.768,241.5308085,0.661480832
MUVGEQ,Cc1ccnc(O)c1C#N,1.3371,110.123,166.4797922,0.661479682
LUMCUU,Cn1/c(=N/C(=O)c2ccc(C#N)cc2)oc2ccccc21,1.372,221.836,335.3699427,0.661466553
PEFFOX,O=C(O)COc1ccccc1/C=N/c1cccc(C(=O)O)c1,1.4029,234.164,354.0175394,0.661447454
IBAHAX,N#Cc1ccc2c(c1)Oc1ccccc1-c1cc3ccccc3n1-2,1.3755,246.02,371.9538318,0.661426174
SOXZOU,CC(=O)Nc1ccc2cccc3c2c1C(=O)C=C3,1.3805,188.626,285.1817109,0.661423902
CITRIG01,COC(=O)c1cc2c(cn1)[nH]c1ccccc12,1.4041,176.846,267.3733083,0.661419799
PIPPAF,CN1C(=O)N(C)c2cccc3cccc1c23,1.3773,169.139,255.721263,0.661419383
AZHPXB,Cn1nc2nc(-c3ccccc3)[nH]c(=O)c2n1,1.4228,175.296,265.0338957,0.66140974
SEGYUB,Cn1c2c(c(=O)n(C)c1=O)CC(C#N)(C#N)C1COCCN21,1.4296,231.336,349.7731553,0.661388664
KINRAD,C=C(C)C(=O)N(c1ccccc1)N1C(=O)c2ccc(C)cc2C1=O,1.3599,258.531,390.8999067,0.661373911
SAYZIC,Cn1c(C=O)ccc1C=O,1.3539,111.171,168.0931936,0.661365268
AJISES,Nc1cccc2c1CN(C1CCC(=O)NC1=O)C2=O,1.4408,197.498,298.6218107,0.661364954
ZEWMIZ,N#[N+][N-]CC1(COC(=O)c2ccccc2)COC(=O)N1,1.4397,210.606,318.4470171,0.661353345
PESHOL,CC(=O)Nc1ccc2c(C)cc(=O)oc2c1,1.3943,170.981,258.5332475,0.661350142
VEVDOQ,O=C1Nc2ccccc2/C1=C\c1ccccn1,1.3544,180.073,272.2865527,0.661336369
AMBZPH,Nc1ccc(C(=O)c2ccc(N)cc2)cc1,1.334,174.599,264.0216609,0.661305589
GIRXIP,C=C(C(=O)OC)N1C(=O)c2ccccc2C1=O,1.4141,179.425,271.3293783,0.661281138
MRFPUR,Cc1ncnc2c1ncn2C1OC(CO)C(O)C1O,1.4753,198.067,299.5242724,0.661271951
AYOSEN,Oc1ccccc1C1Nc2ccccc2-c2nc3ccccc3n21,1.3813,248.923,376.4349403,0.661264334
YABRUO,O=C1Cc2cccc3[nH]cc(c23)CC(CO)N1,1.3975,180.807,273.4262893,0.66126414
VUZFUU,Cc1cc2c(c(=O)o1)C(c1cccc(C#N)c1)C(C#N)=C(N)O2,1.4113,237.373,358.9711021,0.661259357
PITDUS,O=C(CCC(=O)Nc1cccnc1)Nc1cccnc1,1.3824,214.558,324.4700872,0.661256641
XUMWEH,COC(=O)C1CC2(N=NCC2C#N)C(=O)O1,1.4491,169.015,255.6154049,0.661208193
VEWZEC,O=c1ccc2[nH]cc(C3=CCNCC3)c2[nH]1,1.3967,169.102,255.7491189,0.661202669
XICNIH,Cc1c(/N=C/c2ccc(O)c(O)c2O)c(=O)n(-c2ccccc2)n1C,1.4059,264.85,400.5589566,0.661201043
TEWQET,O=C1Nc2ccccc2C1(O)c1nnn[nH]1,1.4844,160.556,242.825245,0.661199786
BIHJUA,CCOC(=O)c1nc2ccccc2c(=O)[nH]1,1.4188,168.758,255.233731,0.661190037
WEMVIW,COC(=O)C1=C(C(=O)OC)C2(OC3c4ccccc4C=CN13)c1ccccc1-c1nc(C#N)c(C#N)nc12,1.4222,388.421,587.4602741,0.661186836
SISYIC,CC(C)Oc1c(C(=O)Nc2nnn[nH]2)oc2c(-c3ccccc3)cccc12,1.4178,281.215,425.3201378,0.661184306
FOYLAJ,NC(=O)c1cc2ccccc2o/c1=N\c1ccccc1,1.3869,209.071,316.2071172,0.661183726
PHACRD,O=c1c2ccccc2n(-c2ccccc2)c2ccccc12,1.3476,220.878,334.0666259,0.661179486
UFAJUH,Cc1c(C(=O)n2ncc(C#N)c2N)cnn1-c1ccccc1,1.3894,230.833,349.1243085,0.661177106
MUWDOY,NC1=C2c3nc4ccccc4n3C(=O)CC2c2ccccc2O1,1.4355,231.827,350.62985,0.661173029
TOLPUH,O=C1C(=O)c2c(nc3ccccc3c2-c2ccccc2)-c2ccccc21,1.3769,267.205,404.1383835,0.661172041
MEHMES,COc1cc(OC)cc(C(=O)NN)c1,1.394,154.44,233.5856572,0.661170732
PITZAT,Nc1ccc(-c2ccc(O)cc2)cc1,1.3258,153.273,231.8227459,0.66116463
TUPLAS,O=C(c1ccccc1)c1ccc2c3ccccc3ccn12,1.3406,222.025,335.8109691,0.661160654
YORTIL,O=C1ON=[N+](c2ccccc2)/C1=C1/C=CC=C[N-]1,1.4048,186.845,282.601632,0.661160371
MAYDEX,Cn1cc(C(=O)/C(C#N)=N/Nc2ccccc2)c2ccccc21,1.3471,246.233,372.4260214,0.661159494
IXUVOM,COC(=O)/C=C1\OC(c2ccc(OC)cc2)=Nc2ccccc21,1.3868,244.711,370.1266507,0.661154768
OHAHAJ,O=C1NN2C(=O)c3ccccc3NC2c2ccccc21,1.4393,202.209,305.8433692,0.661152146
DUBYUX,O=C1C2C3C=CC(O3)C2C(=O)N1c1ccccc1,1.4268,185.503,280.5770305,0.661148205
EXUPOE02,COc1cccc(/C=N/c2ccc(C(C)=O)cc2)c1O,1.3512,218.658,330.7253434,0.661146792
SIBZUB,[O-][n+]1cccc2cccc(C3CC4OC3c3ccccc34)c21,1.3963,227.325,343.8347984,0.661145996
TEDZAF,O=C(c1cccc(C(=O)n2nnc3ccccc32)c1)n1nnc2ccccc21,1.4211,284.384,430.1389554,0.661144489
DASBUV,[NH3+]C1CC=CCC1C(=O)[O-],1.3632,113.622,171.8572124,0.661141877
GUZQOK,Cc1cc2c(c(=O)n1CCc1c[nH]c3ccccc13)C(c1ccccc1)C(C#N)=C(N)O2,1.3699,338.337,511.7618823,0.661121923
ZEXSAZ,COc1ccc(O)c(/C=N/c2cccnc2)c1,1.3631,183.706,277.8710665,0.66111957
HUKNIL01,Oc1ccccc1/C=N/c1nnn[nH]1,1.4248,145.679,220.3547435,0.661111251
VAVNAI,COc1nc2c(nc1C#N)c1nc(OC)c(C#N)nc1c1nc(OC)c(C#N)nc21,1.444,303.399,458.9452604,0.661078839
LEBCOK,COc1ccc(N2CC(CO)OC2=O)cc1,1.4209,172.355,260.7178907,0.66107853
VUBZUQ,O=C1OCCc2c1n(-c1ncccn1)c1ccccc21,1.4234,204.442,309.2597732,0.661068841
MUTWON,O=C(Nc1ncnc2c1ncn2C1OCC(O)C1O)c1ccccc1,1.4583,256.779,388.4325983,0.661064497
TAKZOX,Cn1c(N)c(/N=N/c2ccccc2)c(=O)n(C)c1=O,1.4142,201.13,304.2518448,0.661064192
SAMLEY,O=c1c2ccccc2cnn1-c1ccccc1,1.3622,178.962,270.7274313,0.661041251
CEDGIE,O=C1CCCN1c1cccc2oc3ccccc3c(=O)c12,1.4067,217.787,329.4633509,0.661035589
DAGDOG,CC(=O)NC1=CC(O)C2OC2C1=O,1.4466,138.905,210.132776,0.661034431
PAXTIT,COc1ccc(OCC(=O)NN)cc1,1.3985,153.909,232.8340407,0.661024477
FOTPOW,COc1cc(NC2=CC(=O)C(C)=C(C)C2=O)cc(OC)c1,1.3718,229.746,347.5611808,0.661023189
YOFZAV,O=C1c2ccccc2C(=O)N1C/C=C/Cn1ccc(=O)[nH]c1=O,1.4222,240.106,363.2379836,0.661015673
ZAPWEU,Cc1cccc(/C=N/C(C#N)=C(\N)C#N)c1O,1.332,186.313,281.8599973,0.661012566
VIMKEK,COC(=O)C1=NN=C2c3ccccc3-c3ccccc3C12c1ccccc1,1.3638,283.409,428.7523301,0.661008653
ATOJEY,CC(=N\O)/C(C)=N/NC(=O)c1ccccn1,1.375,175.703,265.811971,0.661004842
CUDDUB,c1ccc(COc2ccc(OCc3ccccn3)cc2)nc1,1.3497,237.564,359.4105563,0.660982255
XUQHOJ,c1ccc2c(c1)COc1ncc3ccccc3c1-2,1.3631,187.688,283.9552465,0.660977398
QICTUU,O=C1CCC(=O)n2c1cc1ccccc12,1.3947,156.661,237.0148156,0.660975558
TELWOW,CC(=O)n1ccnc1-c1nccn1C(C)=O,1.4032,170.584,258.0845721,0.660961632
KUNNEM,Cc1cn(CC2CCOC2=O)c(=O)[nH]c1=O,1.4525,169.327,256.1836566,0.660959416
FRTMNE,CNC1C(O)C(O)C(N)C(O)C1OC,1.4256,158.698,240.1051674,0.660952039
HTMTZC,CNC(=O)c1nc(=O)n(C)c(=O)n1C,1.4544,149.479,226.1577467,0.660950165
SOGNEI,Cc1c(-n2nnc3ccccc32)c(=O)oc2c1ccc1ccccc12,1.4026,255.965,387.2690358,0.660948788
IHUKEC,COc1ccc(Nc2nccnn2)cc1,1.3821,160.48,242.8066828,0.660937327
DUHHUJ,COCc1cn(C2CC(O)C(CO)O2)c(=O)[nH]c1=O,1.4756,202.379,306.2148609,0.66090522
LIYBAY,CC1(NC(=O)c2ccccc2)C(=O)OC2=CC=CC=CC21,1.3732,224.665,339.9383077,0.660899331
QEGYUZ,CC1=NOC(=O)/C1=C\c1cn(-c2ccccc2)nc1-c1cccc(O)c1,1.3885,272.78,412.741731,0.660897553
WORRAY,COC(=O)c1ccc(-c2cc(-c3ccc(C(=O)OC)cc3)c3c4ccccc4n(-c4ncccn4)c3c2)cc1,1.3847,406.717,615.4172042,0.660880127
UDADIP,C#CCn1cc(C=O)c2ccccc21,1.3063,153.8,232.7209738,0.660877262
SURHIW,O=C(/C=N/O)NCCO,1.417,102.273,154.7551369,0.660869823
BUYZAW,O=NN1CN2CN(C1)CN(N=O)C2,1.5134,134.937,204.1861246,0.660852936
CUCXEE,Cc1ccccc1C=C1C(=O)N(C)C(=O)N(C)C1=O,1.3846,204.566,309.5490355,0.66085168
YOVNON,COc1ccc(/C=N/c2cccc(C#N)c2)c(O)c1,1.3418,206.173,311.9842381,0.660844282
PAHCUZ,COC(=O)C(=Cc1nc2ccc(OC)cc2c(C(=O)OC)c1C(=O)OC)C(=O)OC,1.4349,318.998,482.7139121,0.660842773
CUBJEQ,O=C(O)CCC1NC(=O)NC1=O,1.491,126.627,191.6187687,0.660827751
ZODWUM,COc1cc(/C=C/C(=O)n2ccnc2)ccc1O,1.3806,194.009,293.5877199,0.660821236
MEWKIK,COc1ccc(N2C(=O)C(C#N)=C(N(C)C)C2=O)cc1,1.3787,215.773,326.5260789,0.660813987
IWILOP,Cn1ccn2c(=O)c(-c3ccccc3)nc-2c1,1.3723,179.99,272.3783472,0.660808768
SIWNEU,Cc1nc(C2(O)C(=O)c3ccccc3C2=O)c2ccccn12,1.4083,227.59,344.4124163,0.660806606
YEQCON,Cc1ccccc1-n1c(=O)c2cc3c4ccccc4nc3c3c4ccccc4nc1n23,1.3987,313.919,475.0553242,0.66080514
AXUYOJ,Oc1ccc(/N=N/c2ccncc2)cc1,1.3654,159.989,242.114558,0.660798761
XALDIX,COC(=O)/C(C)=N/N=c1\[nH]ncc2ccccc12,1.3902,192.671,291.5737736,0.660796743
TAPDOD,COc1c[n+](=O)cc[n-]1,1.4188,97.479,147.5238831,0.660767585
EWEVOT,COC(=O)CC(C(=O)Nc1cccc2cccnc12)N1C(=O)c2ccccc2C1=O,1.418,311.938,472.0844799,0.660767327
IJOZAJ,CC1(C)OC(=O)C(=CNc2ccccn2)C(=O)O1,1.4294,190.436,288.2056535,0.660764276
NOXGIT,O=C(O)c1cc(NCc2ccccc2O)cc(C(=O)O)c1,1.4237,221.256,334.8486381,0.660764223
QUCLIK,CCn1cc(C(=O)N/N=C/c2ccncc2)c(=O)c2ccccc21,1.3719,256.04,387.4943052,0.660758098
HIBJAD,Cc1[nH]c(N)cc(=O)c1C#N,1.371,119.296,180.5450249,0.660754846
MENBAJ01,[O-][n+]1c(-c2ccccc2)ccc2ccccc21,1.3381,181.289,274.3682809,0.660750577
YIVMIA,Cc1ccc2c(/C=C/c3ccc4cccc(O)c4n3)ccc(O)c2n1,1.3651,263.729,399.1488006,0.660728529
WOWDUK,NC(=O)C(=O)N/N=C1\C(=O)Nc2ccccc21,1.4594,174.467,264.0525136,0.66072842
BIYPUU,COc1cc2cc(C)n(C)c(=O)c2cc1OC,1.3715,186.484,282.2416945,0.660724491
DOXMUB,C/C(=N\O)c1ccc(/N=C/c2ccc3c(c2)OCO3)cc1,1.383,223.803,338.7245079,0.660722784
SONFOT,CC12C(=NC(=O)c3ccccc31)c1ccccc1C21C(=O)c2ccccc2C1=O,1.3907,297.518,450.291856,0.660722587
ADAGAQ,COc1ccc(C(=O)N/N=C\c2c3ccccc3cc3ccccc23)cc1,1.3476,288.331,436.3903356,0.660718115
RUQWIK,NC(=O)c1ccc(=O)n(C2OC(CO)C(O)C2O)c1,1.4895,198.94,301.1100773,0.660688615
HOWLOV,COC(=O)C/C(C(=O)OC)=C1\NC(=O)NC1=O,1.4814,179.267,271.3343345,0.660686751
RENTOT,N#Cc1c(N)nc2c(c1C(N)=O)CCCC2,1.3824,171.506,259.5902089,0.660679772
JEGTEU,O=C(NC1CC(=O)c2ccccc2NC1=O)c1ccc2ccccc2c1,1.3888,271.844,411.4625454,0.660677389
HOFJUJ01,O=C1Nc2ccccc2/C1=C\C(=O)c1ccccc1,1.3558,201.551,305.0749018,0.660660706
THYDIN01,Cc1cn(C2CC(O)C(CO)O2)c(=O)[nH]c1=O,1.4726,180.358,272.9968118,0.66065973
GEFVUL,CC(=O)c1ccc(-n2ccnn2)cc1,1.3642,150.445,227.7202884,0.660656989
JABLEG,O=c1[nH]c(=O)n(CCC(CO)CO)cc1-c1ccco1,1.4328,214.471,324.6397916,0.660642982
ZINWUQ,COc1ccc(-c2cc3c(=O)oc(-c4ccccc4)cn3n2)cc1,1.3885,251.324,380.4375906,0.66061821
YOFBIE,O=C1CN=C(c2ccccc2)c2cc3c(cc2N1)OCCO3,1.4151,227.992,345.1227436,0.660611345
PULJAH,O=C(Nc1ccccc1)c1cccc(C(=O)Nc2ccccc2)n1,1.3643,254.987,385.9880805,0.660608482
KIHZIK,O=C(O)CC(NC(=O)Cc1c[nH]c2ccccc12)C(=O)O,1.4333,222.026,336.0942615,0.66060634
ZUHHUF,CCCC(=O)Nc1ccc(C(=O)OO)cc1,1.3844,176.771,267.5917732,0.660599532
CUKMUT,COc1ccc(/C=N/NC(=O)N/N=C/c2ccc(OC)cc2O)c(O)c1,1.4191,276.839,419.0732798,0.66059807
TOLKOX,O=C(Cc1ccccc1)N/N=C/c1c(O)ccc2ccccc12,1.3789,241.94,366.2510898,0.660585065
KAVTAC,CC(=O)OCC1OCN2CC3C(=O)OC1C3O2,1.5124,176.302,266.8931244,0.660571532
SALPUS,COC(=O)Cc1[nH]c(=O)ccc1C(=O)OC,1.4323,172.367,260.9375253,0.66056808
MXURID01,COc1cn(C2OC(CO)C(O)C2O)c(=O)[nH]c1=O,1.5193,197.877,299.5704701,0.660535733
FAQTID,O=C1C2C3C=CC(O3)C2C(=O)N1CCCN1C(=O)C2C3C=CC(O3)C2C1=O,1.4689,276.38,418.4188421,0.660534307
COBWUO,O=C(CCn1cncn1)NC(=O)c1ccccc1,1.3857,193.219,292.5206467,0.660531153
SOLNEN,O=c1[nH]c(-c2ccccc2)cc2ccccc12,1.3415,180.769,273.672901,0.660529411
MOZZAF,COC(=O)c1nc2ccc(OC)cc2c(C(=O)OC)c1C(=O)OC,1.4338,254.802,385.7725659,0.660497979