name,smiles,Density,Vint,Veff,pc
TUBQUC,NC(=O)N/N=C/c1ccc(Oc2ccccc2)cc1,1.3665,204.149,310.003915,0.658536845
LENKIY,O=C1C2CCCN2C(=O)C2CCCN2C(=O)C2CCCN2C(=O)C2CCCN12,1.4214,298.671,453.5410711,0.658531319
CABSIH10,CCc1cn(C2CC(O)C(CO)O2)c(=O)[nH]c1=O,1.4487,193.322,293.5662963,0.658529274
LOHZAJ,O=C1Nc2ccccc2/C1=C/c1ccccc1,1.3254,182.41,276.9972812,0.658526319
GAPYAZ,Cc1c(/C=N\NC(=O)c2ccccc2O)c(=O)n(-c2ccccc2)n1C,1.3835,276.754,420.266701,0.658519933
NUZJEX,CC(=O)N(CCN(C(C)=O)C(=O)c1ccccc1)C(=O)c1ccccc1,1.3481,285.647,433.7716157,0.658519344
UTIDUY,C=C(c1ccc(C(=O)OC)cc1)C1Nc2ccccc2C(=O)N1C,1.3602,258.978,393.2744976,0.658517147
MADENS10,COC1C(O)C(CO)OC1n1cnc2c(N)ncnc21,1.4823,207.381,314.9263024,0.658506446
SUJGIO,N#Cc1c[nH]nc1/N=C/c1ccccc1O,1.3719,169.033,256.6973743,0.658491348
FUHSEH,COC(=O)N/N=C/c1cccnc1,1.3747,142.438,216.3110298,0.658486995
QAKREB01,O=C(NC(=O)c1ccccc1)C(=O)c1ccccc1,1.3874,199.46,302.9079624,0.658483846
GAWQON,COc1ccc(C(=O)c2n[nH]nc2C(=O)c2ccc(OC)cc2)cc1,1.3944,264.356,401.4620257,0.658483202
BUTDOJ,COc1ccc(NC(=O)c2ccccc2)cc1,1.3287,186.89,283.8212843,0.658477748
MEQFIY,O=C(Nc1ccc(Cc2ccc(NC(=O)c3ccccn3)cc2)cc1)c1ccccn1,1.3542,329.568,500.5082072,0.658466725
ARAZEY,OCc1c(-c2ccccn2)nnc(-c2ccccn2)c1CO,1.386,232.028,352.3822862,0.658455346
ATEJOZ,CC1C(=O)N2c3ccccc3C3(O)CC4C(=O)NC(c5nc6ccccc6c(=O)n54)N1C23,1.4674,319.773,485.645383,0.658449583
KUGVIU,Cn1c(=O)c2cc3ccccc3n2c2ccccc21,1.3774,196.945,299.1044689,0.658448871
SOWQEC,O=C1c2cccc3cccc(c23)C(=O)N1C1CN2CCC1CC2,1.4029,238.603,362.3713852,0.65844879
BOJKOA,COCC1CN(c2ccc(OCc3cccc(C#N)c3)cc2)C(=O)O1,1.3828,267.362,406.0551972,0.658437577
JOYJUF,CN1C(=O)C2(OC(=O)c3c2c2ccccc2oc3=O)c2ccccc21,1.4486,251.395,381.8069981,0.658434762
KAVSEF,O=C(N/N=C/c1c(O)ccc2ccccc12)c1ccncc1,1.3794,230.741,350.4436346,0.658425428
EDIXIA,CC(C)=C1/C(=C(\C)c2cc(C)oc2C)C(=O)n2c1nc1ccccc1c2=O,1.3588,289.796,440.1389167,0.658419397
ZAPBIE,O=c1c2c(cc3n1Cc1cc4ccccc4nc1-3)CCC2,1.3813,216.97,329.5360053,0.658410603
NUXTUW,O=C1c2ccccc2C2c3cc4c(cc3CCN12)OCO4,1.4252,214.102,325.1867076,0.658397146
COYHII,O=C(O)c1ccc(NCc2ccccn2)cc1,1.3651,182.681,277.4639593,0.65839542
RARMEF,Cc1c(C(=O)O)cnn1Cn1ncc(C(=O)O)c1C,1.4393,200.602,304.6904541,0.658379668
MFHPYM10,CC1CCC(C=O)=C2NC=CC(=O)N21,1.387,151.415,229.9815796,0.658378816
ZOTFUM,NC(=O)c1ccc(/N=C/c2ccccc2O)cc1,1.361,192.866,292.9414039,0.6583774
QUKFAF,Cn1c2c(c(=O)n(C)c1=O)-c1ccccc1C2c1ccccc1,1.3689,242.89,368.9266037,0.658369436
ZARVOF,COC(=O)C1=C(c2ccccc2)C(O)c2ccccc2C(=O)N1,1.39,243.117,369.2745607,0.658363792
ISUTOG,O=C1c2cccn2C(=O)C2(O)CCCN12,1.4563,154.7,234.9779698,0.65835959
YERJIO,O=C1NC2CCC1NC2=O,1.4675,104.342,158.4880912,0.658358614
KIFTOL,COc1ccc2c(c1O)-c1nccc(C)c1C2=O,1.3937,189.104,287.2406594,0.658346908
IZUYUX,COC1=NC2C=CC1(C#N)C1C=CC2(C#N)O1,1.3938,178.105,270.5349208,0.658343845
ZIXMIC,COC1=CC(=O)/C(=N\Nc2ccccn2)C=C1,1.3746,182.194,276.7486987,0.658337332
LIFKUJ,O=C(c1nc2ccccc2c2ccccc12)n1c2ccccc2c2ccccc21,1.3597,299.199,454.4773646,0.658336417
SUMMUJ,COC(=O)C1C(N2CCCC2)=Cc2c1c1ccccc1c1ccccc21,1.3464,278.63,423.2374438,0.658330221
HAYHUL,COc1ccc2c3c1OC1CC(=O)C=CC31CCN(C=O)C2,1.414,231.259,351.2812077,0.658330121
DUGKOI,COC(=O)C1=CC(C(=O)OC)=C2NCCC23c2ccccc2NC13,1.4094,252.965,384.2528216,0.658329584
ITAJEU,CCOC(=O)c1c(C)c2n(c1C)Cc1c(C(=O)OC)c(C(=O)OC)nn1C2=O,1.4453,294.33,447.0881418,0.658326564
DELXEY,O=C(N/N=C/c1ccc2ccccc2c1)c1ccccc1O,1.3581,233.51,354.7229507,0.65828839
SEVFII,C=Cc1ncc(OC)c2c1[nH]c1c(O)cccc12,1.3809,190.06,288.7198572,0.658285169
SITVIA,COC1C(CO)OC(n2cnc3c(N)ccnc32)C1O,1.4598,209.761,318.6481351,0.658284097
XODBIC,COc1ccc(C(=O)/C=C2\Nc3ccccc3OC2=O)cc1,1.3982,230.704,350.4629172,0.658283626
MCFIMZ,COC(=O)c1ccoc1C1=NC(c2occc2C(=O)OC)C(c2occc2C(=O)OC)N1,1.4556,332.009,504.3647312,0.658271642
EVIPOO,O=c1ccn(Cc2ccccc2)c(=O)[nH]1,1.3837,159.639,242.5124393,0.658271388
GAPNIW,Cc1cccc(C(=O)N/N=C/c2ccc(O)cc2)c1O,1.3727,215.088,326.7493222,0.658266094
FUMTIS,O=C1CCC23OC=CC2C(O)c2cc(-c4ccco4)ccc2N13,1.4277,236.66,359.5234568,0.658260248
OLALIW,CCOC(=O)c1cnc2n(c1=O)CCN2c1ccc(OC)cc1,1.4155,243.348,369.6866387,0.658254788
TARPIN,COc1ccc(OC)c2c1Nc1nc3c(-c4ccccc4)ccc(-c4ccccc4)c3nc1N2,1.3831,352.612,535.6930103,0.658235208
TILPAI,Cc1ccc(C)c2nc3c(nc12)c(=O)n(C)c(=O)n3C,1.4029,210.452,319.7287395,0.658220466
CIBJIG,NC1=NN(c2ccccc2)C(=O)C1,1.3768,138.99,211.1627089,0.65821281
PYMDON,O=c1nccc[nH]1,1.3994,75.007,113.9569398,0.658204758
TEBRIE,CN1C(=O)N(C)C(O)(c2ccccc2N2C(=O)CCC2=O)C1=O,1.443,240.191,364.9190603,0.658203493
GELWOL,OCC(CO)(CO)n1cnnn1,1.4609,130.239,197.8707831,0.658202277
AVARIZ,COC(=O)c1c(C(=O)OC)c2cc3ccc4cccc5ccc(c2/c1=N/c1cccc2ccccc12)c3c45,1.3826,391.437,594.7064984,0.658201989
JUBTOS,C#CCN/C(C)=C1\C(=O)C=C2Oc3c(C(C)=O)c(O)c(C)c(O)c3C2(C)C1=O,1.4029,296.927,451.1297503,0.658185366
BUWMOX,O=C1Cc2c(CCO)cccc2N1,1.3653,141.757,215.3792953,0.658173757
IWUJIT,CC1(C)CC(=O)c2cnc3nc4ccccc4n3c2C1,1.3742,210.862,320.3760609,0.658170275
EVEPAX01,Nc1ccc(C(=O)/C=C/c2cccnc2)cc1,1.3211,185.394,281.683518,0.658164174
IDIVEY,CCOC(=O)n1c(=O)n(CCCN2C(=O)c3ccccc3C2=O)c2ccccc21,1.4149,303.677,461.4006508,0.658163354
QAKHOB,O=Cc1ccc(N/C=C2\C(=O)C=Cc3ccccc32)cc1,1.3462,223.34,339.3419554,0.658156165
SAXHUU,CC1CC(N2C(=O)c3ccccc3C2=O)C(=O)O1,1.4244,188.038,285.7071485,0.658149441
GODZOO,OCCn1ccnc1-c1ncc[nH]1,1.3905,139.973,212.6779693,0.658145272
NUXTAC,CC1(C)C(=O)NC(=O)NC1=O,1.4421,118.267,179.6979606,0.658143251
VUHKIV,C/C(=N\NC(=O)c1cccnc1)c1cc2ccccc2o1,1.3694,222.749,338.4509638,0.658142608
ZABVOR,CC(=O)N1N=C(c2c(O)c3ccccc3oc2=O)CC1c1ccccc1,1.3893,273.846,416.0894971,0.658142063
VOMFIM,O=c1ccn(C2OC(CO)C3CC32)c(=O)[nH]1,1.4548,168.337,255.7786371,0.658135495
MEKJIV,COC(=O)C1(O)NC(=O)NN=C1C,1.4933,136.902,208.0162614,0.65813124
BUWLOW,CCOC(=O)c1c(C)[nH]c(=O)c(C#N)c1-c1ccccc1,1.3555,227.444,345.5964548,0.658120177
FUGVUB,COC(=O)C1=NOC2(C1)C(C(=O)OC)=Nc1ccccc12,1.4274,220.558,335.1385151,0.658109976
WAZYEB,O=C1c2ccccc2COc2c1[nH]c1ccccc21,1.3954,195.075,296.4171935,0.658109598
LIYRIU,O=[N+]([N-]c1ccc(O)cc1)c1ccccc1,1.3709,170.656,259.3126137,0.658109135
EACHIX,CN1C(=O)C23C=CC1C1C=CC2(NC1=O)C(O)CC3,1.4474,196.399,298.4308297,0.658105599
ZEMLEI,Cc1ccnc2c(-c3ccccc3)c(O)nn12,1.3732,179.133,272.1998296,0.658093726
HICHIN,COC(=O)N1c2ccccc2C2(C)OC(=O)C3C(=O)CCC312,1.4424,228.123,346.6433683,0.658091344
CUFJUL,CCC(=O)c1c(C(=O)OC)cc2c(C(=O)OC)c3cc(OC)ccc3n2c1CC,1.3851,313.348,476.1472123,0.65809059
YETBOR,O=C(/C=C/c1ccc2ccc3cccc4ccc1c2c34)c1ccncc1,1.3379,272.093,413.4624214,0.65808399
FAFCOI,Cn1c(=O)c2c(c3ccccc31)c1ccccc1n2C,1.3609,210.475,319.8331135,0.658077576
YAYYON,O=C(NN=C(c1ccccn1)c1ccccn1)NN=C(c1ccccn1)c1ccccn1,1.3762,335.226,509.402332,0.658077082
MOZKAN,COc1ccc2cc(-c3ccccc3)[nH]c(=O)c2c1OC,1.368,224.555,341.2304707,0.658074291
BUGMOG,O=C1c2ccccc2C2(O)C(O)CCN12,1.4259,157.166,238.8286044,0.658070252
UWEXOM,N#[N+][N-]C1C(O)c2ccccc2N1c1ncccn1,1.4139,196.384,298.426003,0.658065979
WEBFUE,Cc1cccc2nc3c(=O)n(C)c(=O)n(C)c3nc12,1.4141,197.901,300.7376142,0.658052038
EVOWUH,COc1cc(/N=N/c2ccc(C)cc2)cc(C=O)c1O,1.3647,216.277,328.6647575,0.658047433
JIBHEH,Cc1c(-c2ccncc2)cc(C#N)c(=O)n1C,1.3315,184.73,280.7246009,0.658047066
HIMMAL,CNC(=O)C(=NO)C(=O)NC,1.4147,122.864,186.712609,0.658038044
HEVCUH,Cc1cc2c(nn1)-c1cc(OCc3ccccc3)ccc1C2=O,1.3634,242.13,367.9598352,0.658033777
COFQOE,COc1cc2[nH]c3ccccc3c2cc1C(=O)O,1.4054,187.44,284.8493717,0.658031994
UNAJOK,Cc1ccc(N2CC(C(=O)O)CC2=O)cc1,1.3927,171.898,261.2336437,0.658023973
XUCDIL,N#Cc1ccc(N2C(=O)C(c3ccccc3)=C(c3ccccc3)C2=O)cc1,1.3414,285.197,433.4167581,0.658020242
EGIGOT,O=c1cccc(C2c3ccccc3Oc3ccccc32)[nH]1,1.3764,218.394,331.896353,0.65801868
LIHDIP,O=C(Nc1nonc1-c1ccccc1)c1ccccc1,1.3703,211.379,321.2437869,0.658001831
VOXMAZ,COC(=O)/C=C1/C(=O)Nc2ccccc2N1C,1.4036,180.672,274.5796565,0.65799485
EVINUS,Cc1ccc(O)c(N/C=C2\C(=O)C=Cc3ccccc32)c1,1.3468,224.82,341.6760683,0.65799165
SOLNIR,O=C(N/N=C/c1c(O)ccc2ccccc12)c1ccccc1O,1.384,241.655,367.2762966,0.65796514
EDELOP,Cc1ncn(Cc2ccccc2)c1-c1nnco1,1.3669,191.922,291.6906174,0.657964256
HOHPOK,COC(=O)c1cnc(-c2ccc(OC)cc2)c(-c2cc(C)no2)c1C(=O)OC,1.4035,297.471,452.1144547,0.657955075
PUKVEY,O=C(/C=C/c1ccc2ccc3cccc4ccc1c2c34)c1ccccn1,1.336,272.426,414.0504294,0.657953671
TISKAI,O=C(O)/C=C/c1ccc(Cn2ccnc2)cc1,1.3452,185.259,281.5685777,0.657953389
CAMHAZ,CC1C(=O)C(C)C2C=CC1n1c(=O)n(-c3ccccc3)c(=O)n12,1.4057,241.823,367.5446268,0.657941873
AZABAF,C/C(CCC(=O)O)=N\NC(=O)c1ccccc1O,1.3922,196.271,298.3108388,0.657941229
AGIMEK,O=C([O-])C(Cc1c[nH+]c[nH]1)N1Cc2ccccc2C1=O,1.4096,210.125,319.3682641,0.657939513
NIQVOZ,COc1ccc(C(=O)C2=C3NCCN3C(=O)CC2)cc1,1.3896,213.951,325.1842135,0.657937843
DAFTAF,Oc1cccc2ccc(Nc3ccccc3)nc12,1.3513,190.886,290.1349039,0.657921531
GEVMOK,O=C([O-])C1CC2CC2[NH2+]1,1.3878,100.03,152.0401811,0.657918185
EQIPOK,CN(C)c1cc(=O)c2ccncc2[nH]1,1.3683,150.981,229.4841819,0.657914627
QIQYOE,CC1C(=O)NC(=O)N(C)C1C(=O)O,1.4572,139.5,212.0353917,0.657909035
AYEGEQ,N#Cc1ccc(Oc2cccnc2)cc1C#N,1.334,181.04,275.1802316,0.657896096
FECHAY01,O=C(c1ccccc1)c1ccc(N2c3ccccc3Oc3ccccc32)cc1,1.3522,293.384,445.9450653,0.657892693
JODJAO,O=c1[nH]cnc2c1ccn2C1CC(O)C(CO)O1,1.4667,187.029,284.2851709,0.657892212
ZZZKAY02,CCC(N)=O,1.2775,62.471,94.96001537,0.657866364
CUDYOR,COC(=O)CCn1ccc(=O)[nH]c1=O,1.4396,150.301,228.4698338,0.657859278
RIGNIF,COc1ccc(OC)c(C2CC(c3ccccc3O)=Nc3ccccc3N2)c1,1.3602,300.501,456.7969038,0.657843776
XIFGIE,COC(=O)Nc1nn(C)c(=O)c2ccoc12,1.4698,165.786,252.0154329,0.657840665
VOBNIM,COc1cccc2cccc(NC(=O)c3ccccn3)c12,1.3593,223.501,339.7499002,0.657839781
KUTPOF,COc1ccc(/C=N/NC(=O)c2ccncc2)c(O)c1,1.3861,213.654,324.7828475,0.657836464
UGUJUB,CC(=O)/C(=N/Nc1ccccc1)C(=O)O,1.3871,162.287,246.700611,0.657829745
VIVSUR,COc1ccccc1/C=N/n1c(-c2ccccn2)nnc1-c1ccccn1,1.3584,286.388,435.3678528,0.657806951
KOSJEH,O=C(Nc1ncccn1)c1ccccc1,1.3546,160.534,244.0448971,0.657805191
NEJYEH,O=Cc1ccc(-c2cccc(-c3ccc(C=O)[nH]3)c2)[nH]1,1.3583,212.381,322.8650893,0.657801066
OSIDAX,COc1ccccc1C(=O)OCN1C(=O)c2ccccc2C1=O,1.411,240.826,366.1080128,0.657800408
ENIVAY,O=C(/C=C/c1ccccc1)c1ccc(-[n+]2cc(=O)o[n-]2)cc1,1.371,232.714,353.7826447,0.657788061
DIWRIL,C/C(=N\NC(=O)c1ccccc1O)c1nccnc1C,1.3752,214.546,326.1688835,0.657775805
ACEFIZ,O=C(O)c1cc(/N=N/c2ccccc2)ccc1O,1.3927,189.856,288.6336019,0.657775112
SECBEI,COc1cc2c(cc1OC)C1CC(=O)C3=C(CCC3=O)N1CC2,1.4038,243.648,370.4131758,0.657773578
KEQYEL,N#CC(C#N)=C1NCCN1CCO,1.3446,144.669,219.9380607,0.657771554
ZUCNET,COc1ccc(/C=C2/C(=O)OCC2Cc2ccc3c(c2)OCO3)cc1[N-][N+]#N,1.4141,292.833,445.2028799,0.65775181
GAZBUG,COC(=O)c1cnc(-c2ccco2)cc1C(=O)OC,1.4159,201.39,306.1815223,0.657747073
LONMEH,c1ccc2oc3cncc(n3)oc3ccccc3oc3cncc(n3)oc2c1,1.4581,278.726,423.7609016,0.657743551
BIZXIU,O=C(c1cccc(-c2ccccn2)c1)c1ccc2ccccc2c1,1.3173,256.303,389.6735547,0.657737732
WOJLIS,COc1ccc(C(=O)Nc2ccccc2)cc1,1.3331,186.063,282.8845101,0.657734847
HABVAJ,Cc1ccc2c(/N=N/c3ccc4cc5ccccc5cc4c3)ccc(O)c2n1,1.3567,292.345,444.4796723,0.657724117
DAHBAP,CN(C)C(=O)c1cccc(=O)n1O,1.4031,141.728,215.4828719,0.65772281
REQTUD,COc1ccc(C#CCn2c(C#N)cccc2=O)cc1,1.3221,218.168,331.7053557,0.657716242
FICVAQ,C=CCn1c(=O)n(CC2CC(c3ccncc3)=NO2)c2ccc3c(c21)C(=O)c1ccccc1C3=O,1.4018,361.638,549.8394383,0.657715644
SUWCUI,COc1ccc(/C=C2\NC(=O)c3ccccc32)cc1,1.3577,201.993,307.1133096,0.657714901
NIWNUD,O=C(Nc1cccc2cccnc12)c1cccc(C(=O)Nc2cccc3cccnc23)n1,1.384,330.761,502.9053006,0.657700365
CTSARC,CN1CC(=O)N(C)CC(=O)N(C)CC(=O)N(C)CC1=O,1.3984,221.924,337.4262904,0.657696233
DUHMAW,CCOC(=O)Cc1nc(-c2ccccn2)n[nH]1,1.3872,182.733,277.839288,0.657693163
MOZPAT,N#Cc1ccccc1/N=C/c1ccc(O)cc1O,1.3527,192.218,292.2644062,0.657685287
JALKOZ,O=C(O)CN1C(=O)CC(c2ccccc2)=Nc2ccccc21,1.3821,232.391,353.363139,0.6576549
SAWFUR,COC(CO)C(=O)OC(C)c1cccc2nc3c(C(=O)O)cccc3nc12,1.419,284.85,433.1327957,0.657650501
YARPUD,COC(=O)C12C3C(=O)N(c4ccccc4)C(=O)C3CN1CC1C(=O)N(c3ccccc3)C(=O)C12,1.4392,348.404,529.7755173,0.657644585
VEZJAO,O=C1c2ccccc2C(=O)c2c1nc(-c1cnccn1)n2CCN1CCOCC1,1.4098,301.446,458.377415,0.657637113
RAKVAB,Nc1ccccc1C1=C2C=C(O)C(=O)C=C2CCN1,1.3823,200.747,305.2648769,0.65761578
BEYDUG,Cc1ccc2oc(=O)cc(COc3cccc4cccnc34)c2c1,1.3769,251.5,382.4423589,0.65761544
TIZSUR,COC(OC)c1ccc(C(=O)O)cn1,1.4024,153.451,233.3517273,0.657595304
ZULKAS,C=CCN1C=C/C(=C\C(C#N)=C2C(=O)c3ccccc3C2=O)c2ccccc21,1.3356,297.707,452.7250882,0.657588916
DEPDIL,CN(C)c1ccc(Nc2ccc(O)c3c2C(=O)c2ccccc2C3=O)cc1,1.3773,283.943,431.796683,0.65758495
RUKLOZ,CCn1c(=O)c(C(=O)Nc2ncccn2)c(O)c2ccccc21,1.4195,238.556,362.7777413,0.657581689
LIKRUV,N#CC1=C(N)N(C(=O)c2ccccc2)/C(=C\c2ccccc2)C1=O,1.3354,257.663,391.8349181,0.657580496
GUPSAN,COc1ccc2nc3c(cc2c1)c(=O)on3C,1.4208,176.823,268.8997871,0.657579546
RAJGEQ,COC(=O)C12C=CC(C(O)C1O)n1c(=O)n(-c3ccccc3)c(=O)n12,1.4763,255.257,388.1775785,0.657577908
QUZFOH,O=C(OCc1cn(-c2ccccc2)nn1)c1cccnc1,1.3862,220.643,335.5413793,0.657573145
OQIXET,O=C1C2C3C=CC(O3)C2C(=O)N1CCN1C(=O)C2C3C=CC(O3)C2C1=O,1.4816,262.452,399.1232779,0.657571268
HMTRAO10,[O-][N+]12CN3CN(CN(C3)C1)C2,1.4758,115.501,175.6481264,0.65757035
ATAWAV,COc1ccc2c(c1)c1cc(OC)ccc1n2-c1ccc(C(=O)O)cc1,1.3803,274.603,417.6051785,0.65756608
KILRAA,CC1=CC(=O)C=C(C)C1=NC(=O)COc1ccccc1,1.3263,221.555,336.9343919,0.65756125
XILFED,O=C(OCc1cccc(COC(=O)c2ccccc2O)n1)c1ccccc1O,1.4068,294.257,447.499814,0.657557815
UHEKOI,OC1(C#Cc2ccccc2)c2cccnc2-c2ncccc21,1.3392,231.641,352.2760571,0.657555333
SAVYEW01,O=Cc1ccc(-c2ccc(N(c3ccccc3)c3ccc(-c4ccc(C=O)cc4)cc3)cc2)cc1,1.3168,375.78,571.4906462,0.657543571
UDIQIK,O=C1c2ccc3c4c(ccc(c24)C(=O)N1Cc1ccccc1)C(=O)N(Cc1ccccc1)C3=O,1.3981,348.421,529.8890828,0.657535721
GEQXOS,CC1=C2CC34C=CC25N(C(=O)C(=O)N5C3c2cccnc2N4)c2ccccc21,1.436,279.915,425.7049005,0.657532952
OYASEO,O=C(O)c1ccccc1/N=N/c1ccc(O)c(/C=N/c2ccccc2)c1,1.3755,273.955,416.6425979,0.657529982
JIZQAK,N#CC1CC23Oc4ccccc4N2C(=O)c2ccccc2C13,1.392,225.978,343.6796342,0.657525141
EYOGEE,CNC(=O)c1cc2c(cn1)[nH]c1ccccc12,1.3776,178.406,271.3304341,0.657522996
REVHIL,O=C(O)c1ccc2cc(/N=C/c3ccccn3)ccc2c1,1.3593,221.773,337.2874647,0.657519248
WUSVIR,COc1cc2c(c(OC)c1OC)C(=O)C(=O)N2Cc1ccccc1,1.3926,256.473,390.0617427,0.657518982
XAFQEC,COc1ccc2c(c1)CCN1C(=O)c3ccccc3C21O,1.3983,219.502,333.8362899,0.657513897
NUQRIA,CCN1CCC(O)(c2ccncc2)C(O)C1=O,1.3839,186.289,283.3256616,0.657508392
WIBZUC,O=c1c(=NNc2ccccc2)c(=O)c2ccccc12,1.37,199.302,303.1191695,0.657503781
DOFLES,CCOC(=O)c1cc2c(c(=O)o1)c1cc(OC)ccc1n2C,1.4149,232.349,353.3807297,0.657503311
LAYHIC,O=[N+]1C(c2ccccc2)=C([N-]c2ccccc2)c2ccccc21,1.3365,243.54,370.4021579,0.657501569
KUCVAG,CN1C(=O)/C(=N\NC(=O)c2ccco2)c2ccccc21,1.408,208.657,317.3539179,0.657489913
KOLVUE,NC(=O)NNC(=O)c1ccncc1,1.4324,137.248,208.7513845,0.657471089
OKEPEZ,COC1=C(C#N)CC(C#N)=C1OC,1.3239,145.191,220.8345599,0.657465028
SOHRIQ01,O=C(CC1NC(=O)OC1=O)OCc1ccccc1,1.4304,190.103,289.1465447,0.657462465
JOFWEG,CC1Oc2ccc(C#N)cc2C(N2CCCC2=O)C1O,1.3782,215.564,327.8740263,0.657459825
MIGJEU,Cc1cnc(-c2coc3ccccc3c2=O)c(=O)n1Cc1ccccc1,1.3756,273.115,415.4108628,0.65745753
SEBPIY,CCn1cc(C(=O)O)c(=O)c2cnc(N3CCCC3)nc21,1.426,220.591,335.522996,0.657454191
GAQLOB,COc1cc(OC)nc(Oc2ccccc2C=O)n1,1.411,201.235,306.0867195,0.657444401
DAFWAK,NC1C(O)C2OC2C2OC12,1.4555,107.306,163.2171203,0.657443287
NEXWEU,COC(=O)N1CC2OCc3cc4c(cc3C23C=CC(O)CC13)OCO4,1.4692,256.455,390.0818994,0.657438862
NAVSEI,COc1ccc(C(=C2C(=C(C#N)C#N)c3ccccc3C2=C(C#N)C#N)c2ccc(OC)cc2)cc1,1.3286,383.038,582.6260919,0.657433653
HAMXOL,C/C(NC(=O)OCc1ccccc1)=C1\N=C(c2ccccc2)OC1=O,1.3835,265.224,403.4303854,0.657421973
AYUDUU,Cc1noc(/N=C/c2ccc3c(c2)OCO3)c1C,1.4006,190.253,289.3954062,0.657415411
ADENUT,O=C1c2ccccc2C2Nc3cccc4cccc(c34)N12,1.3895,213.779,325.1823646,0.65741265
ZOSZAI,N#CC1=C(N2CCCCC2)C(=O)C(C#N)=C(N2CCCCC2)C1=O,1.3614,259.941,395.4001866,0.657412436
GACHAW,COc1ccc2c(c1)COc1cccnc1/C2=C/c1ccccc1,1.3381,257.097,391.0754932,0.657410154
JIKXOT,OC(Cn1nnnc1-c1ccccn1)Cn1nnnc1-c1ccccn1,1.4269,267.882,407.4809178,0.657409926
XALSEK,O=C1OCC(c2ccccc2)OC(=O)c2cccnc2-c2ncccc21,1.4059,268.745,408.7957535,0.657406536
FICLEK,Cc1onc(-c2ccccc2)c1C(=O)O,1.3844,160.122,243.5701521,0.657395821
RIWLEO,Cc1cc2c(=O)n(-c3ccccn3)c(C)nc2c(C(=O)O)c1C,1.3961,241.7,367.6744455,0.657375031
RAPFOE,COc1ccc(C(=O)c2ccccc2)c(Oc2ccc(C#N)c(C#N)c2)c1,1.3416,288.123,438.2969548,0.657369386
NOKMAB,COc1cc2nc3ccccc3c(=O)n2nc1-c1ccccc1,1.3875,238.466,362.7597475,0.657366209
GUYVAX,COC1C(n2cc(C)c(=O)[nH]c2=O)OC2(CO)COCCC12O,1.4746,242.905,369.5156522,0.657360516
CHEDGL10,[NH3+]C(C(=O)[O-])C1=CCC=CC1,1.3421,124.507,189.4068638,0.657352102
NIZKIT,O=[N+]1/C(=C(/[O-])Nc2ccccc2)C=Cc2ccccc21,1.3724,210.054,319.5479822,0.65734729
HIMNUN,Nc1cccnc1-c1ncccc1NC(=O)c1ccccc1,1.3635,232.258,353.3317883,0.657336837
GAVXOS,C=CCN1CC(=O)NC1=O,1.3862,110.289,167.7833456,0.657329841
YIPLOA,COC(=O)CC1Oc2cc(OC)ccc2C(=O)/C1=C\Nc1ccccc1,1.3859,278.124,423.119685,0.657317562
OKEYOU,COC(=O)c1ccc(-c2cccn3cc(-c4ccccc4O)nc23)cc1,1.3759,272.986,415.3202871,0.657290309
DOLLAT,CN1C(=O)C2(CC2C#N)c2ccccc21,1.3306,162.484,247.2046499,0.657285371
BUPCOH,Cn1c(=O)c(Oc2ccccc2O)cc2ccccc21,1.3805,211.173,321.2813442,0.657283729
DEDWEO,[O-][N+](=C1c2ccccc2-c2ccccc21)c1ccccc1,1.3325,222.063,337.8522965,0.65727835
TEJMEB,COc1ccc(NC2OC(=O)c3ccccc32)cc1,1.3802,201.726,306.9132702,0.657273633
VEYLIW,N#Cc1ccc(C2CC3(CC(=O)O2)OCCO3)cc1,1.3992,202.101,307.4868859,0.657267055
XAZJAM,C#CCn1c(C=O)nc2ccccc21,1.3249,151.629,230.7012745,0.657252546
QUZHEA,CN(/N=C/c1ccccn1)c1nc2ccccc2o1,1.364,201.724,306.9201648,0.657252351
WIWYEH,COC(=O)C12c3cc4c(cc3CCN1C(=O)c1ccccc12)OCO4,1.4429,254.983,387.9548095,0.657249231
REBDOS,Cc1noc(C)c1/N=N/c1ccccc1C(=O)O,1.3969,191.486,291.3450615,0.657248141
EJETUK,O=C1CCC23C=NC(c4ccco4)(O2)C(O)c2ccccc2N13,1.4453,234.169,356.2889018,0.657244721
REVHOS,Cc1ccc2c(c1)c1c(C)cn3c(=O)c4ccccc4nc3c1n2C,1.3649,261.589,398.0100897,0.657242132
NUWJAT,COn1nnc2ccncc21,1.4218,115.186,175.2566743,0.657241731
RAWQOX,O=C1NC(=O)C2(N1)c1ccccc1-c1ccccc12,1.3989,195.106,296.8570036,0.657238999
WIXPAV,CO/C=C1\C(=O)OCC12C(=O)N(C)c1ccccc12,1.4054,201.199,306.1303905,0.657233017
JEYMAC,Cc1cn2c(nc1=O)NC1COC2C1O,1.4884,153.311,233.269495,0.657226955
DOBLEL,Cc1nc2cc3ccccc3cc2[nH]c1=O,1.3651,167.957,255.5546899,0.65722527
LACHUV,O=c1oc2ccccc2c2oc(-c3ccccc3)nc12,1.4094,203.701,309.9436061,0.657219558
MUDHUQ,CCN1C(=O)C2CC(O)C3OC3C2C1=O,1.4366,160.359,243.9975295,0.657215671
KEZKIM,O=C(N/N=C/c1ccc(O)cc1O)c1ccc[nH]1,1.4126,189.347,288.1069775,0.65721074
URAVAL,C(=N/c1ccc(Oc2ccc(/N=C/c3ccc4ccccc4n3)cc2)cc1)\c1ccc2ccccc2n1,1.3361,390.573,594.3152813,0.657181486
WIWPAU,COc1ccc(-c2cnc3c(ccc4cc(-c5ccc(OC)cc5)cnc43)c2)cc1,1.3479,317.501,483.1281288,0.657177633
DOXXUL,O=C1C(=O)N2c3ccccc3CCc3cccc1c32,1.3842,196.374,298.8155987,0.657174528
YOBBEZ,CCN1/C(=C/c2c(-c3ccc(N(C)C)cc3)c(=O)c2=O)C=Cc2ccccc21,1.3291,303.937,462.4943144,0.65716916
NAQWIL,CCOC(=O)/C(=N/O)c1ccco1,1.4153,141.146,214.7799575,0.657165602
CAFLIG,CCCCc1cc(=O)n2c3c1c(=O)c1ccccc1n3CC2,1.3709,234.144,356.2941252,0.657164919
QOLQIS,CC(=O)C(CCC#N)(CCC#N)C(C)=O,1.27,177.101,269.4951491,0.657158396
VIHQUA,N#Cc1oc(-c2ccccc2)c(C#N)c1C#N,1.3242,180.513,274.6890504,0.65715397
MPBPZP10,CC1=C(C)Cn2c(=O)c3cc4ccccc4cc3c(=O)n2C1,1.3758,231.707,352.5922574,0.657152831
ZUMBUE,COc1cc2c(c(OC)c1)C(=O)C1(N2)OC(=O)c2ccccc21,1.4324,236.988,360.6383734,0.65713473
CUKDUH10,COC(=O)c1ccc(C(C)(C#N)C(C)(C#N)c2ccc(C(=O)OC)cc2)cc1,1.3303,308.546,469.5346277,0.657131512
SAHVEC,CCOC(=O)C12ON=C(c3ccccc3)C13N=NCN3N1CC12,1.43,238.937,363.6104216,0.65712363
PAZFOM,COC(=O)c1c(O)c2ccccc2n(CC(C)=O)c1=O,1.4241,210.779,320.7617484,0.657120124
YOYXUF,Cc1ccccc1NN=c1c(=O)c2ccccc2c1=O,1.3562,212.489,323.3650279,0.657118061
NIHWAE,C(=N/c1ccc(-c2nc3ccccc3o2)cc1)\c1ccncc1,1.3501,241.747,367.8951148,0.657108481
ZOSYIP,O=C1C=C(N2CCOCC2)C(=O)C=C1N1CCOCC1,1.4162,214.288,326.1242245,0.657074771
WIDDAQ,CN1C(=O)c2ccccc2Nc2c(C#N)cccc21,1.3614,199.641,303.8337049,0.65707325
DIRRAX,CC(=O)C(=NNc1ccccc1C(=O)O)C(C)=O,1.394,194.18,295.5245059,0.657069029
EVALOF,O=Cc1ccc(Nc2ccccc2)c(O)c1,1.3422,173.22,263.6261003,0.657066959
XINFUV,CN(CN1C(=O)C(=O)c2ccccc21)N=O,1.407,169.881,258.5489183,0.657055544