name,smiles,Density,Vint,Veff,pc
ABACIQ,O=c1[nH]c2c(c3oc4ccccc4c13)CCC2,1.4232,174.99,262.6237716,0.666314397
FUMQOT,CC(=O)N1CN(C(C)=O)C(=O)NC1=O,1.5008,146.758,220.254453,0.666311159
BIKQES,Cn1c(=O)c(C#N)cn(CC(O)CO)c1=O,1.4474,172.06,258.2281827,0.666309921
AWUNUC,O=C(N/N=C/c1cccnc1)c1cc2ccccc2cc1O,1.3906,231.622,347.6211346,0.666305863
JOWMAL,O=C1Cc2cccc(C(=O)c3ccccc3)c2N1,1.3807,189.988,285.1404011,0.66629632
OMESUX,O=C1C=CC(/N=N/c2ccccc2C(=O)O)=C/C1=C/NC1CC1,1.3929,245.542,368.519128,0.666293772
TESJAE,N/C(=N\NC(=O)c1ccccc1O)c1ccccn1,1.4059,201.548,302.4916852,0.666292695
FUMTOY,O=C1CCC23C=CC(O2)C(O)c2cc(-c4ccco4)ccc2N13,1.4475,236.27,354.605623,0.666289491
PUJPEQ,COC([O-])=C1C=C[N+](=O)C=C1,1.419,119.332,179.0997393,0.66628796
CIQKUJ,O=c1[nH]ccc2ccccc12,1.3711,117.053,175.6798334,0.666285923
UVEDEG,COc1ccc(C(=O)C2=C(O)C(=O)N(c3ccccc3)C23C(=O)Oc2c3c(=O)oc3ccccc23)cc1,1.4645,374.043,561.389859,0.666280293
YESNIU,O=C(N/N=C/c1ccncc1)c1ccncc1,1.374,182.057,273.2441895,0.666279493
TIZPAV,O=C(Nc1ccc2ccccc2c1)c1cnccn1,1.3806,199.622,299.6082906,0.666276623
ALAZAO01,Nc1nnc(-c2ccccc2)o1,1.4102,126.362,189.6570905,0.666265625
DAYQEZ,CN1C(=O)OC2(C1=O)C(=O)N(C)C(=O)N2C,1.5273,164.481,246.8711048,0.666262664
QAHLER,N#Cc1cc2c([nH]c1=O)CCC2,1.3725,129.028,193.6624543,0.666252013
WUFDIM,COc1cccc2c1O/C(=C1/C(=O)N(c3ccccc3)N=C1C)C=C2,1.3968,263.058,394.8396212,0.666240128
AMIKUD,CN(C)c1ccc(-c2cc(-c3ccccn3)nc(-c3ccccn3)c2)c2nonc12,1.3926,313.135,470.0075253,0.666234014
NATDES,CCN1C(=O)c2cccc3c(-n4cccc4)ccc(c23)C1=O,1.389,231.062,346.8317058,0.666207836
ETIXOU,NC(=O)N/N=C/c1ccc2c(c1)OCO2,1.4654,156.323,234.6466002,0.666206115
LEZWUL,c1ccc(-c2nc3nccnc3o2)cc1,1.4156,153.997,231.1641912,0.666180169
DUSFED,C=CCN1C(=O)/C(=N\NC(=O)c2ccccc2)c2ccccc21,1.3684,246.665,370.2691744,0.666177519
AJOQUL03,OCn1nnc2ccccc21,1.4188,116.222,174.4623829,0.66617226
IGAJOQ01,O=C(N/N=C/c1ccco1)c1ccccc1O,1.4137,180.033,270.2502777,0.666171379
KORWUL,COC(=O)c1cc(C(=O)c2ccccc2)no1,1.4171,180.369,270.7549741,0.666170587
IPOCEV,O=[N+]1C=CC(=C2C=C(c3ccccn3)[N-]C(c3ccccn3)=C2)C=C1,1.3743,262.505,394.0547868,0.666163713
VIRZUR,N#[N+][N-]C1c2ccccc2-c2cccnc2C1O,1.4008,188.018,282.2420877,0.666158621
ZZZAWP10,CN(C)c1ccc(N2C(=O)c3ccccc3C2=O)cc1,1.3734,214.337,321.7524679,0.666154953
DOLQED,CCN1C(=O)c2cc(=O)n3c4ccccc4n(CC)c3c2C1=O,1.427,239.62,359.7128896,0.666142379
UFIQIJ,CC1(C(=O)[O-])[NH+]=C2C=CC=CN2C(C)(O)C1O,1.4546,181.065,271.8143474,0.666134815
GAQQUL,CN1C(=O)/C(=C/C(=O)c2ccccc2)Nc2ccccc21,1.3782,223.215,335.0907266,0.666133027
FINVON,COc1ccc(/C=C2\NC(=O)NC2=O)cc1,1.4331,168.323,252.6869147,0.666132634
LEQPUT,Nc1cccc(-c2nnc(-c3cccc(N)c3)o2)c1,1.3906,200.535,301.0492628,0.666120216
XOWMAY,O=C(C[N-]/C=C1/C=CC=C[N+]1=O)c1ccccc1,1.3672,194.249,291.6129688,0.666119209
TAPQEH,N#Cc1ccc(Oc2ccc(C#N)cc2)cc1,1.3287,183.204,275.0340322,0.66611393
BENQOD,O=c1oc2ccccc2c2nc(C3CC3)ncc12,1.4161,185.965,279.1794805,0.666112709
IFIYIF,NC(=O)NNC1OCC(O)C(O)C1O,1.538,148.935,223.5931179,0.666098319
BEGVOA,COc1ccc2c(c1)cc(C#N)n2-c1ccccn1,1.3658,201.728,302.854888,0.666087978
WAZPAO,Cc1cn(C2OC3OC(CO)C3C2O)c(=O)[nH]c1=O,1.5166,196.981,295.7295663,0.666084905
KUFNIL,O=C1C(c2ccccc2)=C(Nc2ncccn2)c2cccnc21,1.3933,238.236,357.6745172,0.666069257
AVAKAK,COc1nc(OC)nc(Oc2nc(OC)nc(OC)n2)n1,1.5156,216.082,324.4140506,0.666068561
XIBXOV,Nc1nc2c(c3ccccc13)CCO2,1.4039,146.604,220.1035025,0.666068456
ATEJUF,O=C1NC2c3nc4ccccc4c(=O)n3C1CC1(O)c3ccccc3N3C(=O)C4(CC4)N2C31,1.4893,327.628,491.8842644,0.666067251
REVCAY,COc1ccc(C(=O)c2nc3ccccc3c(=O)[nH]2)cc1,1.4072,220.149,330.5207547,0.666067098
KAZROS,COC1CC(=O)c2c(cc3cc(C)ncc3c2O)C1O,1.4293,211.338,317.2952069,0.666061117
XAYCEI,O=C1NC2C(O)C(O)C(O)C(O)C2n2nncc21,1.5633,181.181,272.0192707,0.666059429
BIHRIU,O=C1CCC(=O)N1c1ccc(N(c2ccc(N3C(=O)CCC3=O)cc2)c2ccc(N3C(=O)CCC3=O)cc2)cc1,1.431,414.411,622.1965144,0.666045197
KUFVAI,Oc1ccccc1-c1cc[nH]n1,1.3796,128.324,192.6657861,0.666044566
SUWJEC,Cc1ccc(-c2nnn3c2OCc2ccccc2-3)cc1,1.3895,209.425,314.4394347,0.666026512
AYUJIO,COc1ccccc1NC1=C(c2ccc(OC)c(OC)c2)C(=O)OC1,1.4046,268.608,403.2994244,0.666026242
FEZWUF,NC1=C(CC(O)c2ccccc2)C(=O)N=N1,1.388,172.98,259.7201449,0.666024578
YAXJAI,CN1C(=O)C2(C(=O)Oc3c(c4ccccc4n3C)C2=O)c2ccccc21,1.4465,264.626,397.3217765,0.666024406
ROKMUA,O=C(Oc1cccc(OC(=O)c2ccncc2)c1)c1ccncc1,1.4038,252.176,378.6325412,0.666017768
CAXKIV,CON1c2ccccc2C2C3C1NC(=O)C23C(=O)O,1.4729,195.291,293.2231388,0.66601497
NAXJUT,O=C(Nc1ccccc1)Nc1nonc1/C=C/c1ccccc1,1.3882,243.876,366.1785395,0.666002984
APIDUZ,Cc1nc2n(CCCCO)nc(-c3ccccc3)c(=O)n2n1,1.4038,235.67,353.8601909,0.665997493
PODCBD,NC(=O)c1noc(-c2ccccc2)n1,1.4242,146.806,220.4344785,0.665984745
EDERIO,O=C(O)CCN(CN1C(=O)CCC1=O)CN1C(=O)CCC1=O,1.4635,235.098,353.0113752,0.665978539
BAGRAC,CCn1cnc2cc3c(cc2c1=O)OCO3,1.4577,165.443,248.4225956,0.665974042
WEMREO,COC(=O)c1cc(-c2cc3ccccc3o2)on1,1.4403,186.624,280.2291702,0.665969213
PAZLEI,CC(O)(c1ccncc1)C(C)(O)c1ccncc1,1.3566,199.009,298.8262037,0.66596904
DOWHUT,O=C1Nc2ccccc2/C1=C\c1ccc2ccccc2c1,1.3526,221.655,332.8317205,0.665967173
SOHCAU,CN1C(=O)c2cccc3c2c1cc1c(-c2ccccc2)coc13,1.3981,236.578,355.2510839,0.665945892
XAZJIU,COc1ccc([N+]2=NOC(=O)/C2=C2\N=C(Cn3cc(-c4ccccc4)nn3)O[N-]2)cc1,1.4554,316.933,475.9290005,0.665924959
JUKCUN,O=C1C2OCC(O2)C2ON=C(c3ccccc3)C12,1.4629,185.251,278.1880254,0.665920108
JAXCAP,O=C(CCn1ccnc1)c1ccc2c(c1)OCO2,1.4219,189.822,285.0602757,0.665901271
JOSHUW,O=C1CCn2c(c(-c3ccccc3)c3ccccc3c2=O)N1,1.4016,228.873,343.7137838,0.665882519
KAYXUD,CC(NC(=O)CCn1ccc(N)[nH+]c1=O)C(=O)[O-],1.4505,193.709,290.9072451,0.665878912
SAQWEP,O=C(O)c1ccc(/C=N/NC(=O)c2ccco2)cc1,1.4297,199.586,299.7420247,0.665859251
CASQET,COC(=O)NC1C(O)OC(CO)C(O)C1O,1.5251,171.89,258.1490426,0.665855655
BZAPUC20,Nc1ncnc2c1ncn2C(=O)OCc1ccccc1,1.4406,206.537,310.1853191,0.66585034
DAVLOD,COC(=O)c1cc(NC(=O)c2ccccc2)c(=O)oc1C,1.4228,223.092,335.0604483,0.665826125
UYACIH,COC(=O)/C=C1\Nc2ccccc2C1=O,1.4079,159.468,239.5045945,0.665824388
NAQCUF,Oc1ccccc1/N=C/c1ccc2ccc3cccc4ccc1c2c34,1.36,261.053,392.0913041,0.665796454
ZIMQEU,CCCCc1cc(=O)n2ccccc2c1C#N,1.3177,189.719,284.9505077,0.665796322
EWIJOJ,CCOC(=O)C1=CNc2cnccc2O1,1.4358,158.68,238.3329276,0.665791343
SOKCOK,CN1CCc2cc3c(cc2C1C1OC(=O)c2c1ccc1c2OCO1)OCO3,1.4867,273.005,410.0461009,0.665790991
TAVFAZ,COC(=O)C1=c2oc3ccc(C)cc3c(=O)c2=CN(c2ccccc2)C1C(=O)OC,1.4204,315.337,473.6301934,0.665787368
CAQYAW01,Oc1ccccc1/C=N/c1ncccc1O,1.3951,169.651,254.8144665,0.665782451
OYUMUS,COc1cc(/C=N/NC(=O)Nc2ccccc2)ccc1O,1.3967,225.687,338.9818096,0.665779088
COVXEQ,Cc1cc(=O)oc2c1c(C)nn2-c1ccccn1,1.4125,188.701,283.4307689,0.665774576
HOZDIK,N#Cc1cccc(N/C=C2\C(=O)C=Cc3ccccc32)c1,1.3431,223.974,336.4164214,0.665764171
YIBMAA,CC(C)n1c2ccccc2c2ccc3c(c21)C(=O)C1(c2ccccc2)OC1C3=O,1.3813,305.052,458.202607,0.665757888
BARKIO10,NC(=O)CC(NC(=O)C1CCCN1C(=O)C([NH3+])Cc1ccc(O)cc1)C(=O)NCC(=O)[O-],1.4369,345.601,519.122176,0.665741161
EJOQAY,O=C(NOCc1ccccc1)n1c(=O)[nH]c2ccccc21,1.4226,219.996,330.4574055,0.66573179
JEXBOE,COC(=O)C1CC(=O)Nc2ccccc21,1.4121,160.546,241.1625997,0.665716824
UBILEY,Cc1cc(O)c(-c2ccc(C#N)c(N(C)C)n2)c(=O)o1,1.4023,213.715,321.0308101,0.66571492
DISKUL,CN(c1ccccn1)c1ccc2cccc(O)c2n1,1.3787,201.344,302.4489696,0.665712303
GANNIS,COC(=O)/C(C#N)=C(\N)CC#N,1.3538,134.778,202.4585494,0.665706637
PARHEV,Cn1nc2ccccc2cc1=O,1.3799,128.23,192.6238993,0.665701403
KATYOT,O=c1ccn(C2CCC(CO)O2)c(=O)[nH]1,1.4724,159.225,239.1874227,0.665691357
CIMJEN,NC(=O)CCn1ccc(N)nc1=O,1.4386,139.912,210.1784176,0.66568205
CEVXEH,O=C1C=[N+]([O-])C(c2ccccc2)CO1,1.4186,148.875,223.6510071,0.665657633
KOKYAM01,O=c1[nH]c(C#Cc2ccccc2)c(CCCO)c2ccccc12,1.3359,250.821,376.8028426,0.665655806
ISOBOJ,O=C1C=CC23OCC(=O)N2c2ccccc2C(O)C3C1,1.4569,205.678,308.9867875,0.665653058
GUJNIK,O=c1[nH]c2ccccc2c2[nH]c3ccccc3c12,1.4072,183.871,276.2308891,0.665642429
PABCAY,C=C=Cn1c(C=O)nc2ccccc21,1.345,151.268,227.2536198,0.665635162
KINPUS,CCn1ccc2nc3nc4ccccn4c3n2c1=O,1.4445,193.671,290.960066,0.665627427
EROPIL,Cc1cnc(-c2nnc(-c3cnc(C)cn3)o2)cn1,1.4167,198.245,297.8361868,0.665617574
GUDQAY,CCn1c2ccccc2c2c3c(=O)c4ccccc4oc3ccc21,1.3904,248.91,373.9578027,0.665609858
HIPPAC,O=C(O)CNC(=O)c1ccccc1,1.3895,142.435,213.9936082,0.665603993
MIVLUZ,NN1C(=O)C2C3C=CC(O3)C2C1=O,1.4902,133.545,200.6420809,0.665588193
NEDFUA,COc1cc(C=O)ccc1Oc1cnc(C#N)c(C#N)n1,1.4027,220.676,331.5513212,0.665586248
VENXUK,O=C1Nc2ccccc2/C1=N\O,1.4371,124.627,187.2440925,0.665585751
EBOZAW,O=c1ccccn1C1OC2(CO)COC1C2O,1.4926,177.035,265.9890165,0.665572595
TAMDUH,O=C(NN1C(=O)c2ccccc2C1=O)c1ccccn1,1.4365,205.48,308.7275516,0.665570659
ZUWQOX,O=C(/C=C\Nc1ccccc1O)C(=O)/C=C\Nc1ccccc1O,1.3865,258.355,388.1851701,0.665545775
MIRJIH,CCn1c(=O)c(C(=O)O)c(C)c2ccccc21,1.3972,182.794,274.6545202,0.665541568
MANHAN,COc1ccc2ncc3c4ccccc4[nH]c3c2c1,1.3875,197.617,296.9272039,0.665540231
SENGAU,COC(=O)c1cc(C(=O)OC)cc(-n2cc(-c3ccccc3)nn2)c1,1.4084,264.525,397.4713495,0.665519667
XETJEN,[O-][n+]1c(Cn2ccnn2)cccc1Cn1ccnn1,1.4434,196.851,295.7907889,0.665507539
ROJMUA,C=C(CC(=O)Nc1cccc(C(C)=O)c1)C(=O)O,1.3839,197.314,296.4870661,0.665506265
DECDOF,NC(=O)C(CCCNC(N)N)NC(=O)c1ccccc1,1.3872,222.405,334.1903929,0.665503871
CAGVIQ,O=C1CC(c2ccccc2)n2ncnc2N1,1.4212,166.474,250.147985,0.665502062
XUHZEF,C#CC1(O)C(CO)OC(n2ccc(N)nc2=O)C1O,1.4742,200.216,300.8562036,0.665487358
WOTKEX,Cc1cc(-c2ccccc2)nn2c1cc1c2c(=O)n(C)c(=O)n1C,1.4089,251.1,377.318076,0.665486273
RIGKIE,O=c1c2ccccc2nc2n1-c1ccccc1C21OCCO1,1.4471,223.056,335.1779462,0.665485312
COYROX,O=c1c2ccccc2nc2n1CC/C2=C(/O)c1ccccc1,1.3985,229.243,344.4756805,0.665483844
FAVWEF,O=c1nc2ccccn2/c(=N/c2ccccc2)n1-c1ccccc1,1.3895,249.822,375.4028739,0.665477058
RIZTOM,Cn1c2ccc3c4ccccc4[nH]c3c2c(=O)c2c3[nH]c4ccccc4c3ccc21,1.4073,303.999,456.818,0.665470713
UFACIP,CC1C=CC(CO)C2C(=O)NC(=O)C12,1.4089,153.019,229.9422923,0.665466968
JEKBEJ,N/C(=N\C(=O)OCc1ccccc1)n1cccn1,1.3982,192.921,289.9054928,0.665461693
HAVJET,COc1cc(NC(C)=O)ccc1-c1ccc(=O)[nH]n1,1.4089,203.218,305.3831392,0.665452587
XOQHIV,COc1ccccc1CNC(=O)c1c(O)nc2ccccn2c1=O,1.4358,250.215,376.0074165,0.6654523
SUYQIN,Oc1ccccc1Oc1ncccn1,1.4077,147.626,221.8441954,0.665449009
GAKSEQ,Cc1cn(CCC(N)=O)c(=O)[nH]c1=O,1.4369,151.562,227.7619295,0.665440446
QOHCIA,OC1C2OCC(O2)C2NC12,1.5058,104.982,157.7649878,0.665432816
HABXUG,O=C1c2c(c(-c3ccccc3)n3c2oc2ccccc23)CN1c1ccccc1,1.3977,287.865,432.6104513,0.665413882
REZMEO,O=C(c1ccccc1)c1c2[nH]c(-c3ccccc3)c3ccccc3c-2oc1=O,1.3944,289.326,434.8061418,0.665413784
XOFPUF,Oc1ccccc1/C=N/c1ccc(-c2nc3ccccc3o2)cc1,1.3829,250.977,377.1810248,0.665401978
YUBQIY,Cn1c2ccccc2c2c3ccccc3c(=O)oc21,1.3992,196.695,295.6121726,0.665381937
VUJVIG,O=C(Nc1ccncc1)c1cccc(C(=O)Nc2ccncc2)c1,1.3918,252.545,379.5489644,0.665381871
BAZQUP,CCn1nc(C(=O)O)c(=O)c2ccc(C)cc21,1.4116,181.657,273.0235237,0.665352925
COYPEL,O=C(O)CNC(=O)c1ccccc1O,1.4454,149.099,224.093866,0.665341728
AYIQEH,Cc1cccc2c1[nH]c1c(O)c(C=O)ccc12,1.3877,179.2,269.3421862,0.665324666
LIGWON,OC1CNc2nnc(-c3ccncc3)n2C1,1.4429,166.232,249.8511438,0.665324151
GIJXEE,O=C1/C(=N\Nc2nncc3ccccc23)c2ccccc2-c2ccccc21,1.3959,277.108,416.5082695,0.66531212
JINYIP,N#[N+][N-]C1CC([N-][N+]#N)C(O)CC1O,1.4566,150.24,225.8289723,0.66528222
VOXVOV,CC1=C(C#N)C(=O)N(C)C(=O)/C1=N\Nc1cccc(C)c1C,1.3686,239.038,359.3080792,0.665273101
YEXLET,O=C1c2ccccc2-c2c1c1ccc3ccccc3n1c2C(=O)c1ccccc1,1.3759,299.58,450.3139245,0.665269235
ETEWAB01,O=C1C=Cc2ccccc2/C1=C/Nc1ncccc1O,1.3935,209.364,314.7094732,0.665261194
YARYUM,O=c1c([O-])c(-[n+]2ccc(-c3ccccc3)cc2)c1=O,1.3876,199.879,300.452089,0.66526081
ZAYQAR,O=C(N/N=C/c1ccccc1O)c1ccccc1,1.37,193.601,291.0169714,0.665256734
DICRAI,O=[n+]1cc(-c2ccccc2)[n-]o1,1.4204,126.025,189.4455684,0.665230658
EWIROT,O=C1NC(=O)C2C1C1(c3ccccc3)C(=O)C2(c2ccccc2)c2c1c1ccccc1c1ccccc21,1.3984,378.481,568.9931704,0.665176701
UYIJUI,O=c1ccnc2cccc(-c3ccccc3)n12,1.3722,178.769,268.7544869,0.665175871
AMTZLA,COc1ccccc1-n1c(N)n[nH]c1=O,1.4446,157.567,236.8939995,0.665137151
DUSZEX,O=C(N/N=C/c1ccccc1O)c1ccco1,1.4099,180.236,270.9786634,0.665129858
SUXROV,CCOC(=O)C1=C(O)C(=O)N2c3ccccc3OC(=O)C12C(C(=O)OCC)c1nc2ccccc2oc1=O,1.4863,386.509,581.1058646,0.665126655
ISUTAS,O=C1NC(O)(Cc2ccccc2)C(=O)n2cccc21,1.4227,198.81,298.9065903,0.665124177
DMURAC,Cn1ccc(=O)n(C)c1=O,1.4109,109.64,164.8460371,0.665105464
BUPREJ,CN/C(=N\C#N)N(C)N=O,1.3924,111.893,168.2365976,0.665093099
WEVZIG,N#CC(=O)/C(=C1\Nc2ccccc2O1)c1ccccc1,1.3756,210.416,316.3713741,0.665091779
ETIPEC,O=c1c2cc3c(=O)n(CCc4ccccn4)c(=O)c3cc2c(=O)n1CCc1ccccn1,1.4205,331.321,498.1598986,0.665089665
YUSZIV,Nc1nc(Oc2ccccc2)nc2nc(-c3ccco3)nn12,1.4595,222.544,334.6077978,0.665089103
GEXQEF,COc1cncnc1-n1cncc(OC)c1=O,1.4485,178.473,268.350312,0.665074688
JESVOT,Nc1ncnc2c1ncn2C12COC1C(O)C(CO)O2,1.517,203.188,305.5161961,0.665064578
SETHII,COc1ccc(-n2cc(C=O)nc2N)cc1,1.3899,172.494,259.3651063,0.665062477
TAKREC,NC(=O)N/N=C/c1ccccc1O,1.4152,139.741,210.1206704,0.665051181
EVIMEB,CC(=O)c1ccc(/N=C/c2cccc(O)c2O)cc1,1.3748,204.91,308.1187776,0.665035742
BZOXZO02,O=c1[nH]c2ccccc2o1,1.45,102.839,154.6442665,0.665003639
UDEBAH,O=C1C=C(Nc2ccc(O)cc2)C(=O)c2ccccc21,1.4003,209.042,314.3481447,0.665001539
VUXVIU,O=C(Nc1cccc(NC(=O)c2ccccn2)c1)c1ccccn1,1.3908,252.581,379.8218642,0.664998579
RALJEV,O=C(O)c1ccc(C/N=C/c2cccnc2)cc1,1.3608,194.83,292.9844583,0.664984079
VIDSAF,CC1=NOC(=O)/C1=C\c1ccc(O)cc1,1.3986,160.323,241.0971818,0.664972518
QAMMAU,COc1ccc(/C=N/c2ccc(C(=O)O)cc2)c(O)c1,1.3972,214.247,322.1892719,0.664972482
XIMZUR,COC(=O)c1ccc(C(=O)N/N=C(\C)c2cnccn2)cc1,1.3906,236.716,355.9872025,0.664956488
PAZBEX01,COc1ccc(C=C(C#N)C#N)cc1,1.2973,156.67,235.6094339,0.664956396
SIDTIL,COc1nc(OC)nc(-n2c3ccccc3c3ccccc32)n1,1.4234,237.471,357.1231198,0.664955549
XUMVEG,CC(=O)Nc1cccnc1-c1ccoc1,1.381,161.575,242.9865766,0.664954428
KISDOI,COC(=O)CC1COc2ccccc2-c2nc3ccccc3c(=O)n21,1.4287,259.774,390.6669967,0.66494995
OCIGOW,COC(=O)c1cc2cc(C=O)oc2n1C,1.4385,158.935,239.0215319,0.664940094
ZOFSUI,N#C/C(C(=O)NCc1ccco1)=C1/NCCO1,1.4185,181.433,272.8605685,0.664929348
GEJHEI,CC12C(=O)CC(C#N)C1(C)C(=O)CC2C#N,1.3503,176.703,265.7475012,0.664928171
XIHSAK,Cn1c2c(c(=O)n(C)c1=O)C(c1c(O)c3ccccc3oc1=O)c1ccccc1O2,1.4721,303.101,455.8452882,0.66492077
NEZXIB,O=C(O)c1ccc(/N=C/c2ccccc2O)cc1,1.3865,191.984,288.7322806,0.664920457
GISDIW,O=C(NNC(=O)c1ccccc1O)c1ccccc1O,1.4363,209.159,314.5690741,0.66490643
OZIJAJ,CC(=O)c1c(C)[nH]c2c1oc(=O)c1ccccc12,1.4118,188.539,283.5580868,0.664904331
XEBRAZ,N#Cc1cccc(N2N=C(c3ccccc3)CC2=O)c1,1.3576,212.345,319.3624086,0.664902926
VUNSUU,CC(=O)c1c(C)n(C2CC2)c2c1c(C#N)c(O)c1ccccc12,1.3638,246.215,370.3062237,0.664895657
DECYAM,N#Cc1nc(/N=N/c2ccc(N(CCO)CCO)cc2)[nH]c1C#N,1.3952,257.288,386.9758866,0.6648683
PEMGUK,COc1ccc(C(=O)Nc2ncnc3nc[nH]c23)cc1,1.4405,206.241,310.2068523,0.664849917
XAFBOY,O=C(Nc1ccccc1CO)c1ccc2ccccc2c1,1.3481,226.943,341.3465832,0.664846262
GEYSEI,OCc1ccc(CO)nn1,1.3995,110.49,166.1888345,0.664846109
QUDNAF,COc1ccc(-c2cn(-c3ccc(OC)cc3)nn2)cc1,1.3749,225.734,339.5315574,0.664839527
WIQLOX,O=Cc1ncn2c1CCC2,1.3847,108.484,163.1742028,0.664835484
MEGLUG,Cc1ccccc1-c1noc(CO)n1,1.388,151.184,227.4043676,0.664824522
WIHYAN,Oc1ccccc1/N=N/c1ccccc1O,1.3865,170.456,256.3949962,0.664817966
JOFWUZ,N#Cc1cccnc1N1CCN(CC(=O)Nc2n[nH]c3ncccc23)CC1,1.4161,282.335,424.6899859,0.664802584
NUMQIY,O=Cc1ccccc1NC(=O)COCC(=O)O,1.4339,182.512,274.5435647,0.664783384
YUQLUS,C=CCn1c(=O)n(CC=C)c2c3c(ccc21)C(=O)c1ccccc1C3=O,1.387,273.888,411.9965271,0.664782303
NAMWII,CC1C2(N)CC(c3ccccc3)C(C#N)(C#N)C1(C#N)C(=O)N2,1.3669,246.427,370.6891451,0.664780729
VILLEK,COC(=O)/C=C1\Nc2ccccc2OC1=O,1.4449,167.352,251.754221,0.664743572
SOLXAT,OCCN(CCO)c1ccc2ccc3cccnc3c2n1,1.3869,225.352,339.0072296,0.664740986
XUMXAE,CN1CCn2c1nn1c(=O)c3c(nc21)CCC3,1.4537,175.49,264.0053682,0.664721332
WAKDOC,Nn1cc(C(=O)c2ccccc2)c(-c2ccccc2)nc1=O,1.3814,232.609,349.9362601,0.664718197
GIRTOR,c1ccc(C2NC(c3ccc4c(c3)OCO4)Oc3ccc4ccccc4c32)cc1,1.3946,301.669,453.8328274,0.664713925
LAWSIN,O=C1c2ccccc2C(=O)N1CNc1ccccc1,1.3876,200.535,301.6866898,0.664712786
TULXIK,O=C1NC2(C(=O)O1)C1c3ccccc3CC13C(=O)c1ccccc1C2(O)C3=O,1.4912,277.636,417.6826457,0.664705615
CEFJUS,COc1ccn(C2OC(CO)C(O)C2O)c(=O)n1,1.506,189.159,284.5791901,0.664697232
ROXLOI,COC(=O)c1cc2cccnc2c(C#N)c1N,1.4014,178.844,269.0677699,0.664680129
OGENOF,O=c1cnc2c3ccccc3ccc2n1-c1ccccc1,1.3707,219.106,329.6424423,0.66467776
NENKEX,CC(=O)c1ccc(NC2OC(=O)c3ccccc32)cc1,1.3891,212.225,319.2922723,0.664673149
SOZVUA,CN(C)c1ccc(-c2nc3c4c(cccc4n2)C(=O)C=C3)cc1,1.3658,243.347,366.1168421,0.664670324
WOBPIM,O=C(O)Cc1c[nH]c2ncccc12,1.4208,136.769,205.773419,0.664658247
DOLGUI,CCOC(=O)c1cc2c3cccc4cccc(c(=O)n2n1)c43,1.4225,226.63,340.9743451,0.66465411
MEMTOO,O=C(CNc1ccccc1)N/N=C/c1c(O)ccc2ccccc12,1.3706,256.992,386.6560095,0.664652802
QOTGOW02,O=c1nc(-c2ccccc2O)oc2ccccc12,1.4241,185.277,278.7585974,0.664650352
ICUSOR,O=C(c1ccccc1)c1cc(CN2C(=O)c3ccccc3C2=O)on1,1.4173,258.597,389.0859813,0.664626875
ABULOA,CNc1nc(OC)n(C)c2ncnc1-2,1.4292,149.113,224.3603523,0.664613861
EBUFAL,CC(=O)c1cc(C(C)=O)c(N)cc1N,1.3741,154.28,232.1406381,0.664597122
KEYQIR,Cn1c(=O)c2cc3ccccc3nc2n(C)c1=O,1.4253,186.674,280.8854004,0.664591323
UMIXEU,O=C1c2ccccc2C(=O)c2c1ccc1nc(-c3ccccc3)[nH]c21,1.405,254.57,383.0488617,0.664588843
HIBXOF,O=c1c2ccccc2[nH]c2ccccc12,1.3728,156.817,235.9634384,0.664581772
BABKIY,O=[N+]1C=CC=C/C1=C\C1=C[N-]CC1,1.3468,142.643,214.6392241,0.664570982
BAQNEN,CN1N=CNc2ccccc2C1=O,1.3944,138.56,208.4974308,0.664564544
INIZUC,O=C1CC(c2ccccc2O)=Nc2ccccc2N1,1.4017,198.473,298.6519589,0.66456286
QIPNIM,CCOC(=O)CNC1=CC(=O)C(NCC(=O)OCC)=CC1=O,1.4244,240.266,361.5413065,0.664560302
YELHUV,COc1ccc2c(c1)c1cccc(O)c1c1n[nH]cc21,1.4133,206.212,310.3004676,0.664555879
WAHBIR,CN(C)/C=N/c1nc2cncn2c(=O)[nH]1,1.4392,158.028,237.7958072,0.664553349
WAPDUN,COC(=O)C1NC(=O)C2CC(=O)c3cc(OC)ccc3C21,1.4433,221.036,332.6205186,0.664529058
GECYOE,O=c1ccccc2ccn(C3CC(O)C(CO)O3)c12,1.4199,202.921,305.361532,0.664527056
VACFIQ,COC(=O)c1ccc(-c2cccc(-c3ccc(C(=O)OC)cc3)n2)cc1,1.3711,279.37,420.4072846,0.664522263
LENRII,COc1ccc(-c2nc3ncccc3o2)c(O)c1,1.4364,185.968,279.852421,0.664521677
MPIOXN,Cn1cc(-c2ccccc2)c(=O)o1,1.3695,141.06,212.274672,0.664516396
AWECAI,C=CC(=O)Nc1ccccc1NC(=O)C=C,1.3376,178.26,268.270672,0.664478151
AFUNEV,O=C1CC2CCC1C1C(=O)NC(=O)C21,1.4646,145.462,218.9119944,0.664477067
FUQPIT,Oc1cccc2ccc(-c3ncc4ccccn34)nc12,1.4019,205.5,309.2705656,0.664466725
NIKMOM,N#CC(C#N)=C1C=C(c2ccccc2)Oc2ccccc21,1.3359,223.073,335.7240116,0.664453516
UCAZIK,O=C(Nc1ccccc1)C(O)(Cc1ccc2ccccc2n1)c1ccccc1,1.3565,299.459,450.6848543,0.664453214
EJIWAY,C#CCNC(=O)c1ccnc2ccccc12,1.3292,174.39,262.4568967,0.664451962
LAWBAN,CN1C(=O)/C(=N\NC(N)=O)c2ccccc21,1.4326,167.965,252.7881276,0.664449718
WEWPIA,O=C(O)/C=C\C(=O)NCCCC(=O)O,1.4363,154.459,232.4628682,0.664445902
POGPAE,Cn1nc2c3c(cccc31)C(=O)c1ccccc1-2,1.391,185.676,279.4479562,0.664438569
POMJOS,Cc1ccc2cc3c(=O)n(C)c(=O)n(C)c3nc2c1,1.409,199.765,300.6531936,0.664436648
AFUSIG,c1cc(C2=NCCO2)nc(C2=NCCO2)c1,1.4202,168.652,253.8315457,0.664424902
PEYNUD,O=c1cnn(C2CC(O)C(CO)O2)c(=O)[nH]1,1.5253,165.7,249.3892526,0.664423179
SOYHOD,N#CCC1C(O)C(O)C2OCOC12,1.4599,139.863,210.5111736,0.664397037
VIBCEQ,CC1=NN(CCO)C(=O)/C1=N\O,1.4443,130.673,196.6831877,0.664383172
JAMHOU,COc1ccn(C)c(=O)c1C#N,1.3687,132.243,199.0470329,0.664380665
CEWXAE,Cc1cn(C2CC(C)(CO)C(O)C2O)c(=O)[nH]c1=O,1.4472,205.925,309.9529311,0.664375069
VEXKUE,N#Cc1cccc(-c2ccccc2O)n1,1.343,161.06,242.4298724,0.664357071
VECXIM,CC1=NOC(=O)/C1=C\c1c[nH]c2ccc(OCc3ccccc3)cc12,1.3878,264.015,397.4001895,0.664355496
TUCWUM,Cc1cccc(-n2c3ccccc3c3nc4nonc4nc32)c1,1.4246,233.171,350.9761444,0.664349996
LAMDOU,O=C(NCCCCNC(=O)c1ccccn1)c1ccccn1,1.3588,242.064,364.362839,0.664348759
PUDNEK,O=c1oc2ccccc2cc1/N=C/c1ccccc1O,1.3989,209.044,314.6627401,0.664343036
LIKTAA,CN1C(=O)C2C(C1=O)C1CCC2C1(O)O,1.4803,157.312,236.7944679,0.664339845
CEVPEZ,O=C(O)Cn1cc2ccccc2n1,1.4123,137.522,207.0118769,0.664319372
HENKAM,CC(=O)/C(=N\Nc1ccccc1C(=O)O)C(=O)c1ccccc1,1.3964,244.977,368.7656472,0.664316218
LENQAW,CC(=O)Oc1ccc2ccc(=O)[nH]c2c1,1.4096,158.914,239.2157481,0.664312451