name,smiles,Density,Vint,Veff,pc
FAFNAE,COC(=O)CC1(C(=O)OC)C2C(=O)N(c3ccccc3)C(=O)C2C2CCCN21,1.4049,296.396,456.4289374,0.649380387
XISWED,COc1ccc(C2c3c(nc4c(c3O)c(=O)n(C)c(=O)n4C)OC2C(=O)c2ccccc2)cc1,1.4121,350.627,539.9425852,0.649378304
LEPLOH,Cc1nc2c(o1)C(=O)c1ccccc1/C2=N/c1ccccc1,1.3577,228.815,352.3621203,0.649374569
EDONOB,COC(=O)c1nc(-n2cc(-c3ccc(OC)cc3)nn2)nn1C1OC(COC(C)=O)C(OC(C)=O)C1OC(C)=O,1.4341,419.707,646.3278926,0.649371634
IPAMUH01,CC(=O)/C=C(/C)Nc1ccc(N/C(C)=C\C(C)=O)cc1,1.2772,229.776,353.8493617,0.64936107
NAXJON,O=C(NCc1ccccc1)Nc1nonc1/C=C/c1ccccc1,1.3494,255.816,393.9554151,0.649352668
NIWYIE,COc1cc(OC)cc(-n2c3ccccc3c3nc4ccccn4c32)c1,1.3643,271.2,417.6538347,0.649341578
XEXGIT,COc1ccc(C23OC(=O)c4ccccc4N2C(=O)c2ccccc23)cc1,1.3917,276.682,426.0978941,0.649339046
PICFIT,N#Cc1ccc(C(=O)n2nc(N)c3c(N4CCOCC4)cccc32)cc1,1.3688,273.455,421.1409528,0.649319422
LAQNOI,COc1ccc(-c2cc(C(=O)NCCO)n[nH]2)cc1,1.3708,205.386,316.3127323,0.649313098
SILSOW,CCOC(=O)Nc1ccc2c(C)cc(=O)oc2c1,1.3835,192.565,296.5727869,0.649300976
IVEBIV,O=C(O)Cc1ccc(N2C(=O)c3ccccc3C2=O)cc1,1.3826,219.193,337.5834386,0.649300217
WAJROR,O=C1/C=C\C=C2/C(=O)N(CCCCCOc3ccccc3C(=O)OC1)c1ccccc12,1.3515,332.807,512.5652597,0.649296833
IJIJUH,O=C1NC(=O)[C@@H]2[C@@H]3C=C[C@@H](C3=Cc3ccccc3)[C@H]12,1.3562,199.627,307.4529866,0.649292766
ZOHTAU,N#C/C(=C\c1ccc(-c2cc3ccccc3o2)o1)c1ccccc1,1.3172,254.651,392.198406,0.649291267
CEMZUR,O=C1c2cccc(=O)n2CCN1Cc1ccccc1,1.3535,202.421,311.760354,0.649283969
RUJFAD,Cn1c2ccccc2c2c(O)c(-c3ccccc3)c3c4ccccc4n(C)c3c21,1.3365,303.454,467.3754205,0.649272483
VOXMUT,CN1C(=O)/C(=C/C(=O)c2ccccc2)N(C)c2ccccc21,1.3326,236.349,364.0225332,0.649270247
NAFBUU,CCOC(=O)C1=C(N)N(c2ccc(OC)cc2)C(=O)C1,1.3795,215.8,332.3740037,0.649268588
IGOHEU,Cc1ccc(-c2cc(-c3cc4c(ccc5ccccc54)oc3=O)nc3c2CCc2ccccc2-3)cc1,1.3345,375.818,578.8430744,0.649257142
KOTMAK,COC(=O)/C(=N\N/C(=C\C(=O)c1ccccc1)C(=O)c1ccccc1)C(=O)c1ccccc1,1.3426,353.441,544.3854241,0.649247728
BUVDIG,CC12CCC(=O)N1c1ccccc1-n1c2cc2ccccc21,1.3526,229.66,353.7353782,0.649242383
HPYPYO10,C1CN2C3OC4C5OC3N3CCN5C(C23)N14,1.5425,155.244,239.1174384,0.649237467
DUZHAI,CCOC(=O)C1=C(C)N(C)C(=O)NC1c1ccnc2ccccc12,1.3627,257.242,396.2221109,0.649236862
AXIQAA,O=[N+]1C=CC(=C2C=CC=C[N-]2)C=C1,1.3175,140.801,216.8720445,0.649235361
NUWNOI,CN1C(=O)CC(C23C(=O)N(C)C(=O)C2CN=C3N2CCOCC2)C1=O,1.431,262.292,404.0020124,0.64923439
GOXJUY,O=C(NN(C(=O)c1ccccc1)c1ccccc1)c1ccccc1,1.3205,258.095,397.539438,0.649231184
CUFBUC01,CN1CC(c2coc3ccccc3c2=O)C(C#N)(C(=O)c2c[nH]c3ccccc23)C12C(=O)Nc1ccccc12,1.3864,399.828,615.854669,0.649224598
FIVTOV,CN1C(=O)c2ccccc2/C1=C\c1ccc2c(c1)OCO2,1.3697,219.673,338.363215,0.649222464
SIWXIF,COc1ccc(-c2c3c(=O)oc4ccccc4c3nc3ccc4ccccc4c23)cc1,1.3643,318.551,490.67102,0.649215028
SACYOK,O=CC1=CNC=C(C=O)C1c1ccccc1,1.3266,173.161,266.7261811,0.64920886
CERLER,COc1cccc(/C(N)=N/O)c1,1.3463,132.987,204.8450287,0.649207846
RIZTEC,Cn1c2ccccc2c(=O)c2c3[nH]c4ccccc4c3ccc21,1.3585,236.573,364.4037424,0.649205737
SABLAK,Oc1c(Oc2ccccn2)c2ccccc2c2ccccc12,1.3496,229.332,353.2523268,0.649201668
JOTCAW,CCc1c2n(CC)ccc3c-2n(c(=O)c1=O)c1ccccc31,1.3552,232.382,357.9519095,0.649198939
XAFTUU,COC(=O)C(C)N1C(=O)c2ccccc2NC1c1ccccc1,1.3484,247.952,381.9376828,0.649194911
QONTOD,CN1CCC2=CC(O)C3OC(=O)c4cc5c(cc4C3(O)C21)OCO5,1.4592,244.619,376.8050563,0.649192456
AEXTAZ,CCOC(=O)c1nn[nH]c1N,1.4242,118.132,181.9695852,0.649185411
VENHUS,CC1(C)OC(=O)C(=CN)C(=O)O1,1.4301,128.942,198.623085,0.649179324
DIWROR,O=C(O)c1ccccc1NCn1nnc2ccccc21,1.3845,208.75,321.5603178,0.649178361
HUHHAW,O=C(c1ccccc1-c1ccccn1)c1ccccc1-c1ccccn1,1.3076,277.112,426.8669874,0.649176461
SUCKIM,CC1CN(CC(O)C[N-][N+]#N)C(=O)NC1=O,1.4107,173.545,267.3320439,0.649173954
ZOYDIA,COc1ccc(/C=N/N=C/c2ccc(C#N)cc2)cc1,1.2913,219.649,338.3517343,0.64917356
PEDQUM,Cc1cccc(C)c1-c1nnc(-c2ccc(-c3ccccc3)cc2)o1,1.3043,269.559,415.2351921,0.649171855
PESYOB,O=C1c2cc3c(cc2C2CC4OC4C4(C(=O)OCc5ccccc5)CCN1C24)OCO3,1.4257,316.922,488.1943713,0.649171762
XEQHIM,CC(C)=CC[C@@]1(O)C(=O)c2ccccc2-c2nc3ccccc3nc21,1.3352,266.545,410.5940805,0.649169125
KORFOP,CCOC(=O)CN1C(=O)C(OC(C)=O)=C(c2ccc3ccccc3c2)C1=O,1.3902,284.666,438.5092348,0.649167628
YEJVOA,CC1(C)OC2C([N-][N+]#N)OC(C(O)C#N)C2O1,1.425,181.624,279.7800496,0.649167088
OJEBOV,O=C(c1nc2ccccc2[nH]1)c1nc2ccccc2[nH]1,1.3819,204.448,314.9425548,0.649159654
YIJRIU,Cc1nc(C(C#N)(C#N)CC(=O)c2ccccc2)c(C#N)c2c1CCCC2,1.3029,293.015,451.3763684,0.649158929
XABMIX,O=C1NC2(C(=O)OCc3ccccc3)CCC1(C(=O)OCc1ccccc1)NC2=O,1.403,313.585,483.0678729,0.649153085
SEJMEZ,COC(=O)c1c(C(=O)OC)c(C(=O)OC)n2c1C(=O)NCC2,1.447,231.001,355.8528095,0.649147608
FOJKIY,CN(C)c1ccc(Nc2cccc3c2C(=O)c2ccccc2C3=O)cc1,1.3366,275.935,425.0728836,0.649147501
QOQQOC,Oc1ccc(CNc2cccnc2)cc1,1.3146,164.076,252.7595432,0.649138695
FUWVEB,Cc1ccc(-c2c3ccccc3c(=O)n3c4cccc5cccc(c54)c23)cc1,1.3307,290.919,448.1648471,0.649133911
QEDWUU,CN1C(=O)C2N(C1=O)C(N)=C(C#N)C21C(=O)N(C)c2ccccc21,1.4161,245.947,378.8877299,0.649128965
WOVYUB12,Cc1c(/N=C/c2ccccc2O)c(=O)n(-c2ccccc2)n1C,1.3461,245.948,378.8897754,0.6491281
UYIROM,COC(=O)c1nc(C[N-][N+]#N)[nH]c1-c1ccccc1,1.3739,201.708,310.7400616,0.649121323
PUVSUU,O=c1c2ccccc2[nH]c2cc3c(cc12)OCCO3,1.4084,193.692,298.3914421,0.649120493
XEYRID,Cc1cccc(C(=O)CCn2nnc3ccccc32)c1,1.3191,216.649,333.7584587,0.649119129
QANXIN,COc1ccc(/C=C/c2nc3ccccc3oc2=O)cc1,1.3486,223.072,343.6571968,0.64911197
XENSIT,CN(C)c1ccc2c(c1)oc(=O)c1c(-c3ccccc3)coc12,1.3653,240.88,371.0962309,0.649103871
BIGCEZ,C/C(=N\O)C(=O)NCCNC(=O)/C(C)=N/O,1.3881,178.679,275.2730776,0.649097258
QUYJUQ,Cc1ccccc1NC(=O)/C=C\C(=O)O,1.3446,164.395,253.269156,0.649092067
IROSOX,N#Cc1ccc(Oc2ccc(OCc3ccccc3)cc2)cc1C#N,1.3079,268.752,414.046058,0.649087209
YARMOW,Cc1ccc(-c2nc3ccccc3n(C)c2=O)cc1,1.3171,204.682,315.3395218,0.649084513
DAZLIC,OCC1CCc2nc3c4ccccc4ccc3n21,1.3534,189.635,292.1578868,0.649083966
SAPMEC,N#CC1=C(N)C2(O)c3ccccc3CCC2C1c1ccc(O)cc1,1.3432,255.29,393.3129961,0.649075933
ZUCJAK,O=Cc1ccccc1OCc1ccc(-c2cc(-c3ccccn3)nc(-c3ccccn3)c2)cc1,1.3338,358.122,551.7447171,0.649071915
TAGMIA,COc1ccc(CN(N=O)c2ccccc2)cc1,1.3221,197.375,304.0923072,0.649062786
QUYWOZ,O=C(/C=C1\c2ccccc2-n2c3ccccc3c(=O)n21)OCCOc1ccccc1,1.3823,310.431,478.2819407,0.649054404
XUKFUF,CC(C)n1c2c(c3c1-c1ccccc1C3=O)C(=O)CCC2,1.3473,223.296,344.0336356,0.649052816
KAHLEK01,NC(=O)C1C(c2ccccc2)C(C(N)=O)C1c1ccccc1,1.3213,239.934,369.6689747,0.649050952
TUCBOL,CNC1=C(C(=O)OC)CC(NC)=C(C(=O)OC)C1,1.3665,200.439,308.820144,0.649047687
UGOTOC,CCOc1nc2c(c3ccccc13)-c1ccccc1CO2,1.3487,221.451,341.1947273,0.649045786
DIACHZ,CC(=O)NNC(C)=O,1.3503,92.637,142.7289297,0.64904151
OBAWEW,COc1ccc(C(=O)C2CC(=O)Nc3c2cnn3C)cc1,1.3776,223.061,343.681688,0.649033707
ZUBRAS,Cc1nc(-c2ccccc2)c(-c2ccccc2)c2c3c(ccc12)OCO3,1.338,273.171,420.8912686,0.649029857
PIVSUI,Nc1ncnc2c1ncn2C1(CO)CC(O)C(CO)O1,1.4605,207.447,319.6270168,0.649028365
LOHRAD,CN(C)c1ccc(/C=C/c2nc3ccccc3o2)cc1,1.3007,218.857,337.2092508,0.649024306
BOWZES,CO/C([O-])=C/[N+](=O)Cc1ccccc1,1.3313,156.305,240.8311479,0.649023191
HEBZOF,O=C1C=CC(C(CC(=O)c2cccc[n+]2[O-])c2ccccc2)O1,1.3582,245.276,377.9205119,0.649014786
QATLAZ,CC1(C)C2CCC1(C(=O)NC(CO)c1ccccc1)C(=O)C2,1.3636,238.034,366.7638882,0.649011551
FOHREC,Cc1ccc(C(=O)Cn2c(C)c(C(N)=O)c(C)cc2=O)cc1,1.331,241.405,371.959107,0.649009516
UNUTUT,COc1cc(/C=N/NC(=O)c2ccco2)ccc1OC(C)=O,1.3852,235.039,362.1506677,0.649008882
NUVRAX,CCn1c(=O)c2c(Nc3ccc(OC)cc3)c(Nc3ccc(OC)cc3)c3c(=O)n(CC)c(=O)c3c2c1=O,1.3912,398.325,613.755032,0.648996716
VOPJEP,NNC(=O)c1ccccc1,1.3193,111.149,171.2630323,0.648995866
UHOJIN,O=C(/C=C/c1ccncc1)c1c2ccccc2cc2ccccc12,1.3012,256.024,394.4950611,0.648991648
EVIWUD,N#CC(CN1C(=O)c2ccccc2C1=O)c1cccc2ccccc12,1.3338,263.492,406.0060273,0.648985439
VALQUV,O=C1c2ccccc2-c2ccc(N3CCCC3)c3cccc1c23,1.3328,241.876,372.7018022,0.648979958
WUWWIW,COc1ccc(/C=C2\N=C(/C=C/c3ccc(C=O)cc3)N(C)C2=O)cc1,1.3249,281.549,433.8337773,0.648978975
YIJHOO,C#CCC([NH3+])C(=O)[O-],1.2964,93.976,144.8063675,0.648976986
NAKHOY,COc1ccc2c(=O)c(-c3ccc(O)cc3)c(N)oc2c1,1.3917,219.21,337.7811674,0.648970461
SALIAZ16,Oc1ccccc1/C=N/N=C/c1ccccc1O,1.3392,193.203,297.7100141,0.648963726
AFIHEE,COC(=O)C1=C(Nc2ccccc2)C(=O)OC12C(=O)Nc1ccccc12,1.4103,267.516,412.224282,0.648957404
GASXED,Cc1ccc(NC2=C(C(=O)Nc3ccccc3)C(=O)OC2)cc1,1.3557,244.924,377.4120993,0.648956407
WENCUN,CC1=C(C#N)C(C#N)=C(N)NC(=O)C1,1.337,151.588,233.5891758,0.648951303
TMTHYD,CC12C(=O)NC(=O)N3CCCN4C(=O)NC(=O)C1(C)C4C32,1.4658,214.761,330.9385643,0.648945222
DIDYOE,COC(=O)C(O)C(O)C1CC=NO1,1.4396,141.525,218.0878144,0.648935845
DAVTAX,CN1C(=O)C2(Cc3ccccc3C(=O)O2)c2ccccc21,1.3794,218.029,335.9838303,0.648927062
GOZZAZ,Cc1ccc(/N=C2/C(=O)Nc3ccccc32)cc1Nc1nccc(-c2cccnc2)n1,1.3585,322.174,496.4738165,0.648924453
LANGAL,COC(=O)CCNC(=O)c1ccc(C(=O)NCCC(=O)OC)cc1,1.3751,263.411,405.9203153,0.648922929
XENGAY,COC(=O)C(C(=O)OC)=C(C)N,1.3779,135.349,208.5768651,0.648916648
NIVJEI,COC1C=CC23C(=[N+]([O-])CC2O)C1C(O)c1cc2c(cc13)OCO2,1.4573,244.831,377.2963276,0.648909046
VUJTEZ,O=C(O)c1cccc(/C(=N\O)c2ccccc2)c1,1.343,193.429,298.0843686,0.648906888
NAQCOA,C=C1CC2c3ccccc3C(=O)N2c2ccccc21,1.3265,200.73,309.3356842,0.648906706
BIYRAD,O=Cc1c(O)cc(Cc2ccccc2)[nH]c1=O,1.3501,182.833,281.7569863,0.648903165
OCAXIB,Cc1nn(-c2ccccc2)c(C)c1C=C1C(=O)c2ccccc2C1=O,1.3274,266.363,410.4851798,0.64889797
ISAYUX,COC(=O)c1cc(C)c(-c2ccc(OC)c(OC)c2)cc1NC(=O)c1ccccc1,1.3427,325.151,501.0834502,0.648895907
VORFAL,COc1ccc(OC)c(C2OC3(C(=O)N(C)c4ccccc43)C3(O2)C(=O)c2cccc4cccc3c24)c1,1.395,380.929,587.0459525,0.648891281
DHPROA,O=C1C2C=CCN2C(=O)C2C=CCN12,1.3962,146.694,226.0688026,0.648890949
OPIKII,COc1ccc(C2NC(=O)Nc3cnnc(-c4ccccc4)c32)cc1,1.3699,261.247,402.6064947,0.648889184
QAHLOB,N#Cc1cc2c([nH]c1=O)CCCCC2,1.3171,153.883,237.1501751,0.648884193
PYMCOX,O/N=C/c1ccncn1,1.3541,97.911,150.8940555,0.64887248
HUMNIM,Cc1cccc(C(=O)C(=O)c2ccccc2)n1,1.3087,185.316,285.6010941,0.64886306
GUWMOD,CCN1C(=O)C=C(c2cccc3occc(=O)c23)C1=O,1.3932,208.096,320.7117874,0.648856725
MEZYUO,CON1C(=O)c2cc3c(c4c2C1Cc1ccccc1-4)OCO3,1.424,223.279,344.113238,0.648853271
NAJLES,CCC(=O)/C=C/c1c(-c2ccccc2)nc2ccccc2c1C,1.2753,254.434,392.1305972,0.648850158
XUWYEV,O=C(c1ccccc1)c1cn(Cc2ccccc2)nn1,1.3233,214.23,330.1697231,0.648848108
TEDRID,CN1CCOC(=O)c2cccc(n2)C(=O)OCCN(C)C(=O)c2cccc(n2)C1=O,1.4001,317.161,488.8199665,0.64882988
DOVCEZ,COc1cc(OC)c2cc(C(=O)N(C(C)=O)N(C(C)=O)C(C)=O)n(C(C)=O)c2c1,1.3965,311.032,479.3776439,0.648824583
KUSGAI,O=C(Nc1cccc2ccc3cccnc3c12)c1ccccc1,1.331,241.318,371.9327453,0.648821603
EJODEO,COC(=O)C1(C#N)C(C#N)(C(=O)OC)C12C(=O)c1ccccc1C2=O,1.3989,260.369,401.2955059,0.648821121
QOTQIA,Cc1ccccc1-c1cc2ccccc2c(NC=O)n1,1.3136,214.986,331.3496377,0.648819179
FEKCAB,OC1c2ccccc2N=C(c2ccccc2)N1c1ccccc1,1.3336,242.475,373.7175109,0.648818942
SOMBEC01,COC1=CC=C/C(=C/NCCO)C1=O,1.339,156.979,241.9460012,0.648818328
CATCAE,COC(=O)C(C(=O)OC)=C(C)Nc1ccc(C(C)=O)cc1,1.3546,231.544,356.8716839,0.648815836
JAYHUM,O=c1n(-c2ccccc2)c(=O)n2n1CC=CC2,1.3916,177.365,273.367894,0.648814305
JOYZEC,CC1=CC(=O)C2(C)c3ccccc3NC(=O)N12,1.3715,179.181,276.169195,0.648808786
BOVSUD,O=C(Nc1ccc(/C=C/C(=O)c2ccco2)cc1)c1ccccc1,1.3265,257.559,396.9731504,0.648807104
MEPMEC,O=C(c1ccc(-c2ccccc2)cc1)c1cnc2ccc(-c3ccccc3)cn12,1.3109,307.496,473.9492418,0.648795215
SAZKEJ,CC1(C)C(c2ccccc2)=C(c2ccccc2)c2nc(=O)ccn21,1.305,259.348,399.7425756,0.648787534
COWGEB,CO[N-][N+](=O)c1ccc(OC)cc1,1.3691,143.274,220.8341374,0.648785562
DIZMOQ,O=C1N/C(=C\C(=O)N2CCOCC2)c2ccccc21,1.3776,201.851,311.1219471,0.648784188
TEJFIX,O=C(NCCCCCCNC(=O)c1cccnc1)c1cccnc1,1.3158,267.065,411.6469088,0.648772028
TOGPUD,COc1cc(/C=C(/C(=O)O)C(=O)Nc2ccccc2OC)ccc1O,1.3834,267.199,411.8556732,0.648768531
YAXQIZ,NC(=O)OCCOCCOC(N)=O,1.436,144.1,222.1163764,0.648759008
GIKVOO,COC(=O)C(C(=O)c1cn(C)c2ccccc12)c1ccccc1,1.3228,250.124,385.5494955,0.648746796
OYUDIY,Cc1ccc(-c2nc3ccccc3c3nonc23)cc1,1.3552,207.551,319.9279856,0.648742871
ZAQZUP01,NC(=O)NNC(=O)c1cccnc1,1.409,137.672,212.2182279,0.64872844
ITIYAN,O=C1c2ccccc2-c2cc(-c3ccccc3)n(-c3ccccc3)c21,1.3144,263.185,405.6939848,0.648727883
GIDZEB,CN1C(=O)C(CN2C(=O)c3ccccc3C2=O)C(c2ccccc2)c2ccccc21,1.3518,315.697,486.6417814,0.648725638
KUDXOZ,COc1ccc(-c2cncc(-c3ccc(OC)cc3)n2)cc1,1.3251,237.487,366.0828826,0.648724678
UPICON,Cc1cc(=O)[nH]c(C)c1C#N,1.2998,122.714,189.1633471,0.648719754
IVABOW,CC(=O)C1=C(C)NC(=O)NC1c1ccco1,1.3803,171.765,264.7778063,0.648713736
XIVBUB,Cc1noc2c1C1(C(=O)Nc3ccccc31)C1=C(CCCC1=O)N2,1.4137,244.689,377.1928227,0.648710647
LEWDOH,CC(=O)c1c2c(n(-c3ccccc3)c1C)C(=O)c1ccccc1C2=O,1.3499,262.63,404.8537551,0.648703382
IROFEC,COc1ccc(/C(C#N)=C/c2ccc3c(c2)c2ccccc2n3-c2ccccc2)cc1,1.3042,330.519,509.5090091,0.648700993
LAGTIX,CC(=O)ONC(=O)c1ccccc1,1.3475,143.144,220.6635388,0.648698017
SEDNOG,Nc1ccccc1NC(=O)c1cccc(C(=O)Nc2ccccc2N)n1,1.3627,274.414,423.0261511,0.648692756
YIBYIS,C=CCn1c(C=O)cc2c(=O)n(C)c(=O)n(C)c21,1.3797,192.923,297.4031347,0.648691885
CEPROF,CC(=O)N1C2C3N4COCN2C2C4N(C(C)=O)C(C1N3C(C)=O)N2C(C)=O,1.4734,276.48,426.2122151,0.648690934
NOGJAW,N#C/C(=C\c1ccc(N(c2ccccc2)c2ccccc2)cc1)C(N)=O,1.2976,281.537,434.0098424,0.648688054
NAKHIS,COc1ccc(-c2c(N)oc3cc(OC)ccc3c2=O)cc1,1.3754,232.687,358.7061504,0.648684166
BORCAO,Cc1ccc2nc3c(cc2c1)CCOC3=O,1.3559,169.282,260.9624248,0.648683427
FULQUA,CCOC(=O)/C=C1/NC(=O)c2ccccc21,1.3579,172.201,265.463515,0.648680479
QANJEW,COc1ccc(-n2nnc3c2-c2ccccc2OC3)cc1,1.3822,217.511,335.316705,0.648673319
LESPIK,COC(=O)C(=Cc1c2ccccc2nc2ccccc12)C(=O)OC,1.3529,255.66,394.1302678,0.64866878
NAGLEM,Cc1cn(CC2CC(O)C(CO)O2)c(=O)[nH]c1=O,1.4297,192.956,297.467646,0.648662141
XOCWAO,O=C1c2ccccc2C2(c3nc4ccccc4o3)CCCN12,1.3758,227.132,350.159354,0.648653241
COXMAF,Cc1nc(-c2ccccc2)cc(=O)[nH]1,1.3245,151.329,233.2980801,0.648650859
ERILEW,CCOC(=O)c1cc(NC(=O)c2ccccc2OC)c(C(=O)OCC)cc1NC(=O)c1ccccc1OC,1.382,405.437,625.0495587,0.648647766
UTEHUZ,COc1ccccc1C1=CC(O)(c2ccccc2)NC1=O,1.3476,224.689,346.3960256,0.648647743
CEDREJ,NNC(=O)c1ccccc1N,1.3506,120.486,185.7503461,0.648644821
NIRJEE,Cc1cccc(/C=N/O)c1O,1.3303,122.313,188.5708211,0.648631635
NEBJOV,C#CCOc1ccc(/C(C)=N/CCO)c(O)c1,1.306,192.252,296.3970016,0.648630043
VIDYOW,O=Nc1ccc(Nc2ccccc2)cc1,1.311,162.739,250.900463,0.648619767
UYOQUV,CC12CCC(=O)N1c1ccccc1C(=O)n1c2cc2ccccc21,1.3701,248.517,383.1478197,0.648619116
LIVXUK,O=C1NC(O)(c2ccccc2)c2cc3c(cc21)OCCO3,1.416,215.327,331.9844992,0.648605584
NIKMAY,COc1ccc(-c2oc(=O)c3c(N)cccc3c2-c2ccc(OC)cc2)cc1,1.3617,295.136,455.0356292,0.64859976
YETJIT,CCOc1cccc(/C=N/c2ccc(C(=O)O)cc2)c1O,1.3575,226.202,348.756714,0.648595399
WARWIV,NC(=O)CCCNC(=O)NCCCC(N)=O,1.3642,181.696,280.1399948,0.648590003
CANFED,NC(=O)OCC(COC(N)=O)c1ccccc1,1.3813,185.649,286.2384345,0.648581663
HOYWOH01,COc1cccc2cc3cccc(OC)c3c(C#N)c12,1.3296,213.117,328.5912609,0.648577809
DELZAW,C=CC(=O)NCC(=O)O,1.3639,101.9,157.1142533,0.648572602
GLUTIM,O=C1CCCC(=O)N1,1.3876,87.744,135.2889701,0.648567285
WIMVOD,COC(=O)C1OC(c2ccccc2)=NC12CC2,1.3461,184.893,285.0808228,0.648563443
QIYHEO01,O=C(N/N=C/c1c(O)ccc2ccccc12)C(O)c1ccccc1,1.3557,254.308,392.1109264,0.648561371
LEFTEY,Oc1cccc(/C=N/N=C/c2c(O)ccc3ccccc23)c1O,1.3668,241.193,371.8981522,0.648545841
NAJFAG,O=C1N/C(=N\c2ccccc2)c2ccccc21,1.3318,179.585,276.9071234,0.648538751
QIBDOX,COc1ccc(C2=NC(c3ccccc3)(C(C)C(=O)c3nccn3-c3ccccc3)C(=O)O2)cc1,1.3445,372.605,574.5328395,0.6485356
IHOVUY,CCN1C(=O)/C(=C\c2c(O)n(C)c(=O)n(C)c2=O)c2ccccc21,1.396,252.361,389.1250982,0.648534369
TUXBET,COc1ccc(/C=C/c2ccc(-c3cc(-c4ccccn4)nc(-c4ccccn4)c3)cc2)cc1,1.3078,363.305,560.2005941,0.648526624
PEPGOJ,CCOC(=O)C1=C(N)Oc2c(c(=O)oc3ccccc23)C1c1cc(=O)oc2ccc(OC)cc12,1.4385,345.211,532.3052048,0.648520805
NAMMEU03,COc1cccc(N/N=C2\C(=O)C=Cc3ccccc32)c1,1.3394,223.607,344.7976999,0.648516507
QAFVIC,CC1(C(=O)O)Oc2ccccc2[NH+]=C1[O-],1.4342,155.474,239.7381632,0.648515855
HEWJUP,O=C(N/N=C(/c1ccccc1)c1ccccn1)c1cccnc1,1.3271,245.164,378.0386508,0.648515699
YUXLEI,C1=Nc2ccccc2Oc2ccccc21,1.3267,158.343,244.1626654,0.648514382
OBAKOU,Cc1ccc2cc3c4c(cccc4c2c1)N(C)C3=O,1.3242,200.955,309.8729687,0.64850768
JACSUB,c1ccc(N2COOC2(c2ccccc2)c2ccccc2)cc1,1.3123,248.753,383.5791491,0.64850501
LERHAS,O=C1OC(=O)c2ccc(N(c3ccccc3)c3ccc4ccccc4c3)c3cccc1c23,1.3605,328.589,506.6884767,0.648503006
RUJTEX,COc1c(-c2cccc(O)c2)c2ccccc2[nH]c1=O,1.3599,211.508,326.1481694,0.648502797
GOVMIN,CC(=O)Oc1ccc2nc(OCC(=O)c3ccccc3)ccc2c1,1.3494,256.257,395.1525413,0.64850146
BIYGUN,Cc1c(-n2cnc3ccccc3c2=O)[nH]c2ccccc12,1.3559,218.498,336.928088,0.648500401
RIVVOK,COc1ccc(-c2nnc(COc3ccc(C#N)cc3OC)o2)cc1,1.3691,265.159,408.8807601,0.648499577
ROLBEB,CN1C(=O)C(C2c3ccccc3Oc3c2c(=O)n(C)c(=O)n3C)C(=O)N(C)C1=O,1.445,296.703,457.5241845,0.648496867
FIYCOG,COc1ccc(N2C(=O)C3OC(=O)C(C)(C)C32)cc1,1.3734,204.727,315.7003344,0.648485217
ESANEU,COc1ccccc1/C=C1\C(=O)ON=C1c1ccccc1,1.3381,224.605,346.3538566,0.648484189
WEVKIS,C=CC(=O)NC(CC(=O)O)C(=O)O,1.4154,142.311,219.4517656,0.648484188
AWEGUG,CCOC(=O)c1c(C#N)c2nc(N)cc(C)n2c1C(=O)OCC,1.3798,246.713,380.4494475,0.648477746
YEXLEV,C=CC1NC(c2cccnc2)C2C(=O)N(C)C(=O)C12,1.3594,203.677,314.0852864,0.648476732
COSTOU,COc1cc(OC)c2cc(C(=O)C(=O)N(C)C)n3ccc1c23,1.3756,234.934,362.2887017,0.648471782
DUHTUW,C=C([N+](=O)[N-]OC)[N+](=O)[N-]OC,1.4364,131.983,203.5339694,0.648456866
KOGVEH01,CC(=O)c1ccc(/N=C/c2ccccc2O)cc1,1.3106,196.44,302.9456282,0.64843319
BUJKAS,Cc1c2n(c(=O)n(C)c1=O)C1OC(CO2)C2OC21,1.4813,183.237,282.5863205,0.648428416
NUQTUO,COc1cc2c(cc1OC)C1=C(C(=O)c3ccccc3)C(=O)C(=O)N1CC2,1.3797,283.385,437.0381844,0.648421603
QALWEI,CCc1c2c(=O)n3cccc3c(CC)c2c(=O)n2cccc12,1.3517,232.704,358.8787658,0.648419528
MAXJIH,O=C1N(Cc2ccccc2)c2ccccc2C1(O)C1(O)C(=O)N(Cc2ccccc2)c2ccccc21,1.36,377.005,581.4219796,0.648418899
UVOCUG,CCOC(=O)c1cc(-c2ccc(OC)cc2)c2c3ccccc3n(C)c2n1,1.3425,288.859,445.4828753,0.648417742
AXAWIG,O=C(Nc1ccccc1)Nc1cccc(CO)c1,1.333,195.565,301.6057309,0.648412745
IYEJUS,Cn1ccc(/N=C(\N)c2ccccc2)nc1=O,1.3542,181.368,279.7110507,0.648411993
QIXYUT,COC(=O)C(Cc1c[nH]cn1)N/C=C1/C=CC(O)=CC1=O,1.3852,224.726,346.5852214,0.648400411
CECQOS,COC(=O)c1[nH]nc2c1C(c1cccc(O)c1)C(C#N)=C(N)O2,1.415,237.478,366.2542549,0.648396563
HAHJEG,CCc1ccc(/N=N/c2ccc(O)c3ncccc23)cc1,1.328,224.684,346.5270956,0.64838797
LOLVOZ,Cc1cc(-n2cc(C=O)cn2)nc2ccccc12,1.3382,190.761,294.2101375,0.648383504
OYIPOC,COC(=O)c1nn(-c2ccccc2)c2c1CCCCC2=O,1.3606,224.832,346.7611223,0.648377184
MEKQUR,Cc1cccc2c1NC1=C(C(=O)N(C)C1=O)C21C(=O)c2ccccc2C1=O,1.3981,275.771,425.3294826,0.64837029
HOMROQ,O=C1c2ccccc2NC(c2ccccc2)C1O,1.3421,191.809,295.8352882,0.648364166
AXIXIR,N#CC1(Cc2ccccc2)CCc2oc(=O)c3ccccc3c2C1=O,1.3446,263.522,406.4495643,0.648351046
OHIMIE,COc1ccc(C(=O)Oc2cccc(C)c2-c2nc3ccccc3c(=O)o2)cc1,1.3725,303.664,468.3686579,0.64834398
NUVXIM02,NNC(=O)c1ccc(N)cc1,1.3495,120.528,185.9017543,0.648342456
IJUZET,Nc1ccc(CNC(=O)C(=O)NCc2ccc(N)cc2)cc1,1.3414,239.295,369.0891797,0.648339245
SIZDAI,COc1ccc(/C=N/OCCO/N=C/c2cccc(O)c2O)c(O)c1,1.3942,267.275,412.2514971,0.648329968
BANWET,COc1ccc(NC(=O)c2ccc3ccccc3n2)cc1,1.3386,223.676,345.0037646,0.648329157
VEGKUO,N#[N+][N-]CCOC(=O)c1cccc(C(=O)OCC[N-][N+]#N)c1,1.393,235.025,362.5091026,0.648328548
HEHNOA02,Cn1nc2cccc(/N=C/c3ccccc3O)c2n1,1.3524,200.688,309.5527248,0.648316051
KISFOK,COC(=O)CC1Cn2c(cc3ccccc32)-c2nc3ccccc3c(=O)n21,1.3842,279.318,430.8382329,0.648312937
XASWOE,O=C1C2C(=O)C(c3ccccc3)(C(=O)N1Cc1ccccc1)C2c1ccccc1,1.3416,305.849,471.7615244,0.648312726
YAKJEZ,c1ccc(CN2c3nonc3N(Cc3ccccc3)c3nonc32)cc1,1.3994,266.275,410.7212077,0.648310813
USEPOA,NC1=C(c2ccccc2)C2(Nc3ccccc3C2=O)C(c2ccccc2)C12Nc1ccccc1C2=O,1.3432,376.05,580.0466738,0.648309898
PABREP,CC1COC2c3ccccc3NC(=O)CN12,1.3736,170.944,263.6764992,0.648309578
FABPEH,COC(=O)CNC(=O)CNc1cccccc1=O,1.3655,197.178,304.1437933,0.648305191
UZEPAS,COC(=O)C1ON2CCc3ccccc3C2C1C(=O)OC,1.3893,225.581,347.9582402,0.64829906
CEVVEG,O=C1CCCc2c1c1ccccc1c(=O)n2-c1ccccc1,1.3449,231.426,356.975633,0.64829635
PAPJUO,CC1CC2OC(=O)C3(CCN=N3)C2C(O)C2(C)C(=O)C=CC12,1.389,235.728,363.6131858,0.648293321
IZIPEO,COc1cc2c(c(-c3ccccc3)cc3nc4ccccc4nc32)c(OC)c1OC,1.3536,315.065,485.9946512,0.648289028