name,smiles,Density,Vint,Veff,pc
IDONAS,Cc1ccc(-n2ncc(-c3ccc4c(c3)OCO4)c2N)cc1,1.3481,230.258,361.06308,0.637722361
PIDSEA,NC(=O)N(O)CC1=Cc2cc(Oc3ccccc3)ccc2OC1,1.3604,242.96,380.984665,0.637715956
YENSUI,C/C(=N\O)c1ccc(/N=C/c2ccccc2O)cc1,1.2972,207.439,325.2911188,0.637702624
KOFHUJ,N/C(=N\O)c1ccccc1,1.303,110.581,173.4054632,0.637701938
JUMCEC,N#CC(CC(=O)OCc1ccccc1)c1ccccc1,1.2671,221.563,347.440714,0.637700163
EBEYEP,COC(=O)C1(C#N)CC2=C(CC1(C#N)C(=O)OC)N(C)CCN2C,1.3393,262.624,411.8313482,0.637697934
MAHXIC,CNC(=O)c1cc(NC(=O)CNC(=O)c2cc(NC(C)=O)ccc2OC)ccc1OC,1.3559,334.4,524.3885331,0.637695104
AJUGOC,O=C1CCC2N=NN3CCc4cc5c(cc4C123)OCO5,1.4189,202.324,317.2750052,0.637692843
YEQSOC01,COC(=O)C1(C#N)C(c2ccccc2)C1(C(=O)OC)C(=O)OC,1.3498,248.765,390.1019038,0.637692351
BOPRUW,COC(=O)/C=C\C(=O)Nc1ccc(N(c2ccccc2)c2ccccc2)cc1,1.3048,302.027,473.6265788,0.637690141
DUSTIV,O=C1CCN(C(=O)c2cccc(C(=O)N3CCC(=O)CC3)c2)CC1,1.3438,258.584,405.5016485,0.637689146
SUCHAZ,CN(C)C(=O)C1c2ccccc2CC2C(=O)OC(=O)C21,1.3562,213.241,334.3976104,0.637686973
COGVUR,COc1ccc(-c2cc(-c3ccncc3)nc(-c3ccncc3)c2)cc1OC,1.3082,298.811,468.5879187,0.637683961
HOQTUD,O=C(c1ccccc1)c1nn(-c2ccccc2)nc1-c1ccccc1,1.3017,264.486,414.7628356,0.637680084
LABJAZ,CN1C23C=CC=CC12C1C=CC3n2c(=O)n(-c3ccccc3)c(=O)n21,1.3722,256.291,401.9316697,0.637648186
JAYWAI,COc1ccc(/C=N/NC(=O)c2ccccn2)cc1O,1.3426,213.807,335.3057537,0.637647871
YIRVUQ,COc1nn(-c2ccccc2)c(=O)cc1N1CCOCC1,1.3598,223.582,350.6420664,0.637635987
GICKIM,O=C1CNC(c2ccccc2)=NN1c1ccccc1,1.3182,201.702,316.3301431,0.637631299
OZULAZ,COc1ccc(-c2nc3ccccc3cc2N)cc1,1.2968,204.217,320.2758205,0.637628528
WOBSEN01,COc1ccc(-c2cn(Cc3ccccc3)nn2)cc1,1.3006,215.841,338.5059072,0.637628459
YUHQIE,c1ccc(Oc2ccc(-c3cncc(-c4ccc(Oc5ccccc5)cc4)c3)cc2)cc1,1.2902,340.712,534.3435858,0.637627192
APABEB,CCC(=O)c1c2ccccc2nn1-c1ccccc1C=O,1.3136,224.17,351.5697619,0.63762594
RURSUU,CCc1nc2ccccc2c(=O)n1N,1.3263,150.958,236.7512674,0.637622774
NIVTOE,CCOC(=O)C12c3ccccc3C(=O)N1C1(c3ccccc3)CC2c2ccccc2O1,1.3493,322.636,506.0037092,0.637615879
VOTBOV,COC(=O)C(O)C(NC(=O)c1ccccc1)c1ccccc1,1.3189,240.132,376.6105298,0.637613611
TIRYIC01,C/C(=N/NC(=O)N/N=C(\C)c1ccccn1)c1ccccn1,1.3176,237.976,373.229881,0.637612399
JUTWUT,COc1ccc(CN2C(=O)c3ccc(N(C)C)cc3C2=O)cc1OC,1.3346,269.854,423.2281697,0.637608787
KACCIE,CCN1C(=O)c2c(c3ccccc3n2-c2ccccn2)C1C(C(=O)OC)C(=O)OC,1.3581,317.424,497.8353357,0.637608416
POQHIO,CCOC(=O)c1c(C(=O)OCC)c2ccc3ccc4cccnc4c3n2c1C(=O)c1ccccc1,1.3562,363.932,570.7811967,0.637603345
CIQGIU,COC(=O)C(Cc1c[nH]c2ccccc12)NC(=O)c1ncccc1C#N,1.3368,275.725,432.4444886,0.637596286
LILJIB,O=c1occ(-c2ccccc2)n2c1cc1ccccc12,1.3321,207.512,325.4618661,0.637592362
COTXUE,CC(=O)Nc1ccccc1N(Cc1nc2ccccc2[nH]1)C(C)=O,1.3189,258.608,405.6036286,0.637587984
KOPVEQ,CC(C)C(C(=O)O)N1Cc2ccccc2C1=O,1.3237,186.452,292.4336966,0.637587262
GIKHOZ,CCOC(=O)c1c(CCC(C)=O)c2cn[nH]c3ccccc1c32,1.3217,248.437,389.6533037,0.637584739
KOQZUN,N#Cc1ccc2c(c1)C1(c3ccccc3Oc3ccccc31)c1ccccc1-2,1.3037,290.022,454.8790164,0.63758052
HIGYOO,Cc1ccc2c(c1)-c1c(c(=O)n(Cc3ccccc3)c3ccccc13)CO2,1.3126,284.85,446.7674127,0.637580074
EJUCIX,CC(=O)C12C(=O)Oc3ccccc3C1C1(OC2c2ccccc2)C(=O)N(C)c2ccccc21,1.3575,342.503,537.1927513,0.63757934
XOSQEC,O=c1nc(-c2ccccc2)cc(-c2ccccc2)[nH]1,1.3019,201.762,316.4501848,0.637579024
UMINUZ,COC(=O)C1=C(C(=O)OC)C2(n3nnc4ccccc43)c3ccccc3C1N2c1ccc(C)cc1,1.3533,364.706,572.0181135,0.637577712
XUHZAD,O=C([O-])CN/C(NCCO)=[NH+]/CCO,1.3741,158.036,247.8709328,0.63757375
PELNOK,Cc1ccc(NC(=O)C(=O)Nc2ccc(C)cc2)cc1,1.2944,219.309,343.9756086,0.63757137
HUTNAN,CC([NH2+]Cc1cccc(O)c1)C(=O)[O-],1.3167,156.87,246.0436663,0.637569755
LOLZET,COc1ccc(N2CCC(CCC#N)(C(C)=O)C2=O)cc1,1.3044,232.245,364.2673807,0.637567381
YOTKUO,N#Cc1ccc(COc2ccc3ncccc3c2)cc1,1.2851,214.282,336.0934523,0.63756672
SAKZIQ,O=C1N=C(c2ccccc2)C2(c3ccccc3)OCCCCN12,1.3166,246.179,386.1239681,0.637564669
MEBZAM,O=C(NCCCCNC(=O)c1ccccc1)c1ccccc1,1.2796,245.036,384.3316699,0.637563904
UJESIL,O=C1c2ccccc2N(Cc2ccccc2)C1(O)c1ccccc1,1.3008,256.482,402.2894506,0.637555868
OXABOG,O=C(N/N=C/c1cccc(/C=N/NC(=O)c2ccccc2)c1)c1ccccc1,1.2939,302.867,475.0439954,0.637555685
KICXAW,COc1ccc2c(c1)C1(OC(C)=O)CCN(C(C)=O)C1N2C(C)=O,1.3671,257.217,403.4431061,0.63755458
ARIRAX,O=C(Nc1cccc2cccnc12)c1c2ccccc2cc2ccccc12,1.3046,282.515,443.1231585,0.63755413
KUSJAJ,COC(=O)c1c(C(=O)OC)c2c(C(=O)OC)c(C(=O)OC)c3c(-c4ccccc4)c4ccccc1c4n23,1.3766,383.868,602.0992487,0.637549376
FOYREQ,CC(=O)N(C(C)=O)c1ccc(N(C(C)=O)C(C)=O)cc1,1.328,220.121,345.2635077,0.637544933
WUTZOC,Cc1ccc(O)c(C2C(C#N)=C(N)Oc3c2c(=O)n(C)c2ccccc32)c1,1.34,283.738,445.0494642,0.637542617
QOVROL,CC(C)c1nc2c3ccccc3c3ccccc3c2o1,1.3089,211.202,331.2767772,0.637539407
ZERJOV,CC1(N2C(=O)c3ccccc3C2=O)C(=O)N(c2ccccc2)C1c1ccccc1,1.3224,305.93,479.8608375,0.637539003
VIHRIO,CC1(C)OC2OC3COCc4cnnn4C3C2O1,1.4373,186.432,292.4290326,0.637529038
YUCSUN,CCOc1ccccc1-c1nncc(/C(C)=N/O)n1,1.3302,205.425,322.2224092,0.637525492
OYIJEO,COc1cccc(OC)c1-c1cnc(-c2ccccc2)[nH]1,1.313,225.862,354.2796861,0.637524557
ZEQXAW,COc1ccc(/C(O)=C2/C(=O)C(O)=C(C#N)C2c2ccccc2)cc1,1.3239,266.366,417.8155747,0.637520514
YUFGEL,COC(=O)/C=C1\C2CCC3C1n1c(=O)n(-c4ccccc4)c(=O)n1C23,1.3926,257.802,404.3844875,0.637517036
SIHVAG,O=C1NC2(CC2)C(=O)NC12CC2,1.359,129.371,202.9307302,0.637513106
DUTGAB,CC(=O)Nc1ccccc1-c1cc(C)c2ccccc2n1,1.2863,227.257,356.4761506,0.637509689
UDADEL,O=Cc1cn(Cc2ccccn2)c2ccccc12,1.2983,192.514,301.9789692,0.637507971
XUHVAA,CCn1cc(C(=O)/C=C/c2ccco2)c2ccccc21,1.2918,217.261,340.7974367,0.637507729
NIVSAO,CCOC(=O)c1cc2ccccc2c2c1Nc1ccccc1O2,1.346,239.967,376.4172988,0.637502582
FOWFOP01,O=C1c2ccccc2C(=O)N1c1ccccc1-n1c2ccccc2c2ccccc21,1.328,309.397,485.3268281,0.637502363
JEWRUY,COC(=O)N1c2ccc(OC)cc2C2C3=C(C)C4COC(=O)C4C2C#C/C=C\C#CC31,1.3437,327.07,513.0496092,0.637501704
URUWIQ,Cc1cc(-c2cc3ccccc3oc2=O)n[nH]1,1.3464,177.755,278.8315971,0.637499487
FEBGAW,Cc1c(O)ccc2c1O/C(=C\C(C)(C)C)c1nc3ccccc3nc1-2,1.3067,269.095,422.1109702,0.637498239
NOHGUO,COc1ccc2c(c1OC)C(=O)OC2C1c2c(cc3c(c2OC)OCO3)CCN1CC(C)=O,1.392,346.149,542.9852031,0.63749251
SUDSOB,Cc1ccccc1-c1nn(C)c(=O)o1,1.3318,151.086,237.0004972,0.637492333
CENTEX,COC(=O)C1(C(=O)Nc2cc(OC)cc(OC)c2)CC1c1ccc(OC)c(OC)c1,1.3458,326.571,512.2751132,0.637491441
EHEDIE,COC(=O)C12c3ccccc3C3C1C1C(C#N)C1C1C3C12C(=O)OC,1.3573,261.371,410.0001679,0.637489983
CICLEG,Nc1ccccc1OCC(O)COc1ccccc1N,1.3255,218.935,343.4350595,0.637485877
IZANAA,O=Cc1ccccc1CCn1c(=O)c2ccccc2n(Cc2ccccc2)c1=O,1.3177,308.614,484.1125901,0.637483937
XAGJUL,Cn1c(=O)c2c(nc3n2CC(Cc2ccccc2)O3)n(C)c1=O,1.3826,238.98,374.8807987,0.637482637
SAPNAY,O=C1C=CC=CN(c2ccccc2)C1,1.268,154.518,242.3900604,0.637476635
PEDJUD01,O=C(c1ccccc1)c1c(C(=O)c2ccccc2)c2ccccn2c1C(=O)c1ccccc1,1.3061,347.811,545.6121745,0.63746928
QINXIW,O=C(O)c1cccnc1C(=O)NCc1ccccc1,1.3415,202.075,316.9991845,0.637462208
CANBUP,COc1cc(/C=C2\N=C(C)OC2=O)ccc1OC(C)=O,1.3588,214.297,336.1766309,0.637453589
BESQAS,COc1cc(C)c(=O)n(C)n1,1.3219,123.378,193.5514504,0.637442911
YEBWUZ,Cc1ccc(C(=O)OCC2OC(n3nnc4ccc(=O)ccc43)CC2OC(=O)c2ccc(C)cc2)cc1,1.3531,390.505,612.6146637,0.637439851
NUBVUD,COc1ccc(-c2cn3ccc(C)cc3n2)cc1,1.292,195.083,306.0421703,0.637438297
FUDDIR,COC(=O)C12OC3(Nc4ccccc41)C(=O)c1ccccc1N3C(=O)C2(C)C,1.3842,289.158,453.6256913,0.637437441
NIJCUE,CNC(=O)c1cc(C(=O)NC)cc(C(=O)NC)c1,1.3264,198.802,311.8774829,0.637436208
VATLIM,Cc1nn(C(=O)c2ccccc2)c(=O)n1/N=C/c1ccccc1,1.3298,243.666,382.259775,0.637435629
YUPZIV,Cc1cc(C=O)c(O)c(/C=N/c2cccnc2)c1,1.309,194.149,304.5784957,0.637435022
MIRYUI,C/C(=N\NC(=O)c1cc(-c2ccccc2)[nH]n1)c1ccccc1,1.3005,247.543,388.3446997,0.637431128
BUVNAJ,CC12C=CC(C)(O1)C1C(=O)NC(=O)C12,1.3822,147.86,231.9624564,0.637430739
YIPBEH,Cc1cc(C)n(C(=O)c2cccc(C(=O)n3nc(C)cc3C)n2)n1,1.3281,257.546,404.0383527,0.637429586
MEMZUA,COc1ccc(/C(O)=C2\C(=O)CN(C(C)C)C2=O)c(OC)c1,1.3407,240.903,377.9315071,0.637425024
DABZUC,O=C1NCCC2(O)c3ccccc3C(=O)N2c2ccccc21,1.3679,227.58,357.0313579,0.637423002
VEFVOR,CCN(CC)c1ccc2cc(-c3nc4ccccc4[nH]3)c(=O)oc2c1,1.3241,266.323,417.8121857,0.637422768
MAJJIR,c1ccc(COc2cc(Cn3nnc4ccccc43)cc(Cn3nnc4ccccc43)c2)cc1,1.3274,355.796,558.1856687,0.637415147
BZMADN,CC1C2=NC(C)(C)C(=O)N2N=C2c3ccccc3C(=O)N21,1.3669,218.458,342.7278138,0.637409604
LOFSOO,CN(C)c1ccc(/N=C/c2cccc(O)c2O)cc1,1.3028,208.09,326.462103,0.63740936
SINMOT,Cc1ccc2c(c1)c(C)c(-c1ccccc1)n1c(=O)c3ccccc3nc21,1.308,283.345,444.5303219,0.637403088
VESJOV,COc1ccc(C(=O)On2nnc3ccccc32)cc1OC,1.3771,229.888,360.663612,0.637402811
ZIYSIJ,O=C1C(c2ccccc2)=C(c2ccccc2)c2nc3cccccc-3c21,1.2866,274.05,429.9482152,0.637402344
UHUHUA,CCc1[nH]c2ccccc2c1CC(=O)O,1.3048,164.752,258.4755827,0.637398698
TEQYUL,Cc1c(/N=C/c2coc3ccccc3c2=O)c(=O)n(-c2ccccc2)n1C,1.3331,285.14,447.3529982,0.637393739
PIGBUD,COC(=O)c1nn2c(c1C(=O)OC)CC1C(=O)N(c3ccccc3)C(=O)C1C2C,1.3907,302.251,474.1998533,0.637391593
REFCUD,COC(=O)C1=C(C(=O)OC)C23C(=O)c4ccccc4C2(O)C(C(=O)OC)=C(C(=O)OC)N3C1C,1.4033,355.339,557.4974248,0.637382317
QERDEZ,COc1ccc(-c2[nH]nc3c2-c2ccccc2OC3c2ccccc2)cc1,1.322,283.533,444.8408594,0.637380749
LUPYEA,CN1C(=O)c2cccc3c2C2(C1=O)C(c1ccccc1)=CC2C1OC31,1.349,258.217,405.1238577,0.637377916
SILSIQ,COc1ccc(/N=C/c2ccc3c(c2)OCO3)cc1,1.3292,203.124,318.6892082,0.637373324
MILHUK,CC(=O)N1C2CCC(C#N)C(C2)C1(C)c1ccccc1,1.2707,223.359,350.4386948,0.637369683
HUQMEN,COC1(OC)C2C(C)=CC3C(=O)N(c4ccccc4)C(=O)C3C21,1.3338,248.479,389.8530636,0.637365775
DIRQUQ,COC(=O)/C(=N\Nc1ccc(C#N)cc1)C(C)=O,1.3278,195.355,306.5069411,0.637359139
NURCEJ,CCOC(=O)CC1(C)C(C#N)=C(N)Oc2n[nH]c(C)c21,1.3534,215.934,338.7975413,0.637354094
KIYSIW,COC(=O)c1ccc(C(=O)c2ccccc2-c2cc(-c3ccccc3)on2)cc1,1.321,306.951,481.6063799,0.637348285
EGAFEZ,Cc1ccc2c3cc(C(=O)c4ccccc4)cc(C(=O)c4ccccc4)c3n(C)c2c1,1.2933,329.926,517.6547548,0.63734757
WALPOS,Cc1nn(C(=O)N2CCCC2)c(C)c1/N=N/c1ccccc1,1.3118,239.752,376.1718016,0.637347082
UJAPUT,COc1ccc(C#Cc2ccc(/N=C/c3cc(/N=N/c4ccccc4)ccc3O)cc2)cc1,1.2865,354.708,556.5409278,0.637343962
GACZIU,COC(=O)C1=CC2(c3ccccc3)C(=O)NCC(C)N2O1,1.3636,223.62,350.8632576,0.637342312
DABSAD,O=C(O)CN1C2=C(C(=O)CCC2)C(c2ccccc2O)C2=C1CCCC2=O,1.3716,283.298,444.499825,0.637341083
VELTUB,COC(=O)C12Cc3ccccc3N1C1c3ccccc3OCC1C2,1.349,251.949,395.3145005,0.637338119
ATISED,CCOC(=O)c1cc(OC)c2ccccc2n1,1.3218,185.033,290.3217548,0.637337702
NEYXEX,O=[n+]1o[n-]c(-c2ccccc2)c1COC1COC2C(OCc3c(-c4ccccc4)[n-]o[n+]3=O)COC12,1.4101,370.883,581.9269088,0.637336055
SODWUG,Cc1nc2ccccc2c(=O)n1CCCN1CCN(CCCn2c(C)nc3ccccc3c2=O)CC1,1.3139,391.699,614.587977,0.63733593
XUVQUC,N#CC1=C(N)OC2=C(C(=O)CCC2)C1c1cccc(C#N)c1,1.3232,232.836,365.3279548,0.637334201
DOMNEY,CCOC(=O)c1cc2c(=O)[nH]ccc2nc1C,1.357,181.008,284.0088474,0.637332258
HEZMUV,Cc1ccc(N2C(=O)C3CC=CC(NC(=O)c4ccccc4)C3C2=O)cc1,1.3231,288.083,452.0147835,0.637330925
SENKUS,Cc1ccc(C(=O)C(Cn2nnc3ccccc32)n2cncn2)cc1,1.3348,263.349,413.2074402,0.637328795
FAJHON,Cc1ccc2c(c1)C(=O)C1(O)CCCCC1(O)N2,1.351,193.589,303.7519411,0.637325968
JOWWEZ,COc1ccc(/C(=C/c2ccccc2)N2CCOC2=O)cc1OC,1.3221,260.267,408.3754755,0.637322796
WIKBEX,CN(C)c1nc(N(C)C)c(C=O)cc1C=O,1.304,179.457,281.5843084,0.637311791
VIJRUE,COC(=O)C(CC1c2c(ccc3ccccc23)OC2CCC(=O)N21)C(=O)OC,1.3765,294.573,462.2136689,0.637309149
KAFHAE,O=C1c2ccccc2C2C(O)CCCN12,1.3427,160.079,251.1796682,0.637308749
OMITEL,COc1ccc2cc(-c3cn(C4CC(O)C(CO)O4)nn3)ccc2c1,1.3693,263.66,413.7099435,0.637306413
GEBJOM,O=C1CCC2=C1N(CCc1ccc3c(c1)OCO3)C(=O)CC2,1.3669,231.585,363.385491,0.637298422
HIXMIL,CC(C)NC(=O)C(C#N)(C(=O)N(C)C)n1[nH]c(=O)n(-c2ccccc2)c1=O,1.3636,288.829,453.2120372,0.637293311
AVOWUF,Cc1ccccc1C(=O)/C=C1/C=Cc2ccccc2N1,1.2743,216.851,340.2716579,0.63728787
DIRFUH,Oc1cc(OCc2ccccc2)ccc1/C=N/N=C/c1ccc(OCc2ccccc2)cc1O,1.3184,362.959,569.5384498,0.63728621
PCYPOL09,N#Cc1ccc(O)cc1,1.2619,99.829,156.6471441,0.637285797
UHASOM,COC(=O)N1c2ccccc2CC1c1c[nH]c2ccccc12,1.3301,232.418,364.7067346,0.637273672
UZUPAJ,O=C1OC(Cn2cc(-c3ccccc3)nn2)Cc2cn(Cc3ccccc3)c3cccc1c23,1.3311,345.177,541.649615,0.637269907
RUFJOT,NC(=O)c1ccc(Cn2cccc2)cc1,1.2881,164.389,257.9595494,0.637266581
DOLKIA,CC(=O)/C=C/C(C)=C1\C(=O)N(C)c2ccccc21,1.2727,200.482,314.5970997,0.637265888
YERTIZ,O=C(COc1cccc2cccnc12)Nc1cccc2cccnc12,1.336,260.692,409.0798939,0.63726427
SONNAM,Cc1nn(-c2ccccc2)c2c1C1(C(=O)c3ccccc3C1=O)C1=C(CCCC1=O)O2,1.3683,317.191,497.7390388,0.637263657
LUQJIQ,COc1c2c(cc3c1OCO3)CC(C1C(=O)N(C)C(=O)N(C)C1=O)C1(C2)C(=O)N(C)C(=O)N(C)C1=O,1.4465,365.906,574.1833928,0.637263294
ERIWOR,O=C1CCC=C1C(O)c1ccccn1,1.3084,152.927,239.9759645,0.637259654
VEQWOE,COC(=O)c1cc(-c2ccccc2)c2ccc(C)c(C)c2n1,1.2843,239.881,376.4258485,0.637259638
FIXZIV,CC(=O)OC1COC2C(OC(C)=O)C1OC(=O)N2C(C)=O,1.4483,219.99,345.2137403,0.637257369
YOKHOV,COC(=O)C1=C(C(=O)OC)C23OC1C=C2C1C(C(=O)OC)=C(C(=O)OC)C3N1C(C)C,1.4,327.395,513.7626924,0.637249463
HECLAC,Cc1noc(C2=C(N/C=N\O)c3ccccc3CC2)n1,1.349,211.887,332.5036683,0.637247105
NATDOC,COc1ccc(COc2ccc(OCc3ccc(OC)cc3)nn2)cc1,1.326,281.024,441.0011427,0.637240979
RACVAU,CC(=O)C(C(C)=O)=C1C=Cc2ccc(/C=C/c3cccnc3N(C(C)=O)C(C)=O)nc2N1,1.3291,342.486,537.4543023,0.637237433
KUGSUA,NC(=O)c1cccc(/C(=N\O)c2ccccc2)c1,1.3065,194.458,305.1613095,0.637230193
LEKTUT,N#CC1(C(=O)c2ccccc2)C(c2ccccc2)CC2=CC(=O)CCC2C1c1ccco1,1.2965,343.751,539.4456136,0.637230133
PAGCIN,O=C(c1ccccc1)C1Oc2ccccc2NC1c1ccccc1,1.3015,256.213,402.0730829,0.637229924
ZISSOM,Cc1c(=O)n(Cc2ccccc2)cc2c1oc1ccccc12,1.3127,233.055,365.7321008,0.637228724
AXANOD,CC(=O)c1ccc(NN=C(C(=O)c2ccccc2)C(=O)c2ccccc2)cc1,1.2993,301.444,473.0553156,0.637227804
DUVGUX,COc1cccc(Oc2ncccn2)c1,1.3306,160.702,252.1903369,0.63722505
YIGDOK,CCN1Cc2c(C)c(C(=O)Nc3ccccn3)c3nc4ccccn4c3c2C=C1c1ccncc1,1.3303,366.054,574.4644405,0.637209154
HOMFAR,COC(=O)CC1(NC(C)=O)C=CC(=O)C=C1,1.3351,176.808,277.4728865,0.637208205
YIGKEG,CN(C)c1ccc2c(N(C)Cc3ccccc3)c(C(=O)c3ccccc3)c(=O)oc2c1,1.2997,335.574,526.6322513,0.637207462
UNUXOR,CC(=O)OC1C(=O)Nc2ccccc21,1.3647,148.138,232.4842959,0.637195727
HABNAZ,COC1=CC23CCN(C)C(Cc4ccc(OC)c(O)c42)C3=CC1=O,1.3595,254.622,399.6030928,0.63718726
QEHFIV,CC1=NOC(=O)/C1=C\c1cn(-c2ccccc2)nc1-c1ccccc1,1.3184,264.139,414.5409118,0.637184395
LIVSER,COc1cc([N+](=O)[N-]c2ccccc2C(C)C)cc(OC)c1OC,1.3089,266.898,418.8710396,0.63718418
OJUCIG,O=C1OCc2cn(nn2)Cc2ccccc2-c2ccccc2Cn2cc(nn2)COC(=O)c2cccc1c2,1.3642,392.598,616.1459628,0.637183433
AMITOG,COC1Oc2ccccc2C(=O)/C1=C\Nc1ccc2c(c1)OCCO2,1.3828,259.484,407.2368983,0.637181948
JAKSOD,Oc1ccccc1-c1ncc[nH]1,1.3259,127.735,200.468903,0.637181119
USAYAR,O=C(N/N=C/c1ccc(N(c2ccccc2)c2ccccc2)cc1)c1cc2ccccc2cc1O,1.3008,371.869,583.634296,0.63716098
JOFDOY,COc1ccc(N/C(C)=C2/CCOC2=O)cc1,1.3273,185.819,291.6405365,0.637150796
REWJIN,CN(C(=O)c1cccc(C(=O)N(C)c2ccccn2)n1)c1ccccn1,1.3296,276.241,433.5572625,0.637149978
OFECIL,COC(=O)/C=C1\NN=C(c2ccccn2)N(c2ccccc2)C1=O,1.3627,250.095,392.5223482,0.637148435
WILJOT,COC(=O)C1(c2ccccc2)CC(C#N)C2(O)c3ccccc3C(=O)N12,1.3488,273.069,428.5832875,0.63714337
DZXTUN,O=C1CCC23CCC(=O)N2CCN13,1.3752,138.556,217.4645512,0.637142924
SABLEM,COC(=O)N/C(=C\c1cc(C(=O)OC)cc(C)n1)C(=O)OC,1.3638,239.024,375.1519641,0.637139141
LANFEN,COc1ccc(C2OC(C(N)=O)C(C(N)=O)O2)cc1,1.3973,201.482,316.2309489,0.637135615
VEVBII,Cc1ccc2c(c1)OCC(=O)N2C(=O)c1ccccc1OC(=O)NC(C)(C)C,1.3452,300.57,471.7536864,0.637133336
TULCIO,O=C(c1ccccc1)N1OC2CC1C1C(n3ccc(=O)[nH]c3=O)=NOC21,1.4301,261.968,411.1688093,0.63713004
LUGZUJ,Cc1c(C(=O)NN/C=C(\NNC(=O)c2oc3ccccc3c2C)c2ccccc2)oc2ccccc12,1.348,376.882,591.533013,0.637127585
JEJTAU,CCCc1nn(C)c2c(=O)[nH]c(-c3ccccc3OCC)nc12,1.3227,249.691,391.9033901,0.637123858
ADPRTR,Nc1ncnc2c1ncn2CCC(=O)NCCc1c[nH]c2ccccc12,1.3496,273.725,429.6262438,0.637123555
DUQWET,COC(=O)c1ccc(OC2COC3C2OCC3N2N=NC3C(=O)N(c4ccc(C)cc4)C(=O)C32)cc1,1.3992,372.149,584.1111829,0.637120142
WOMKUE,CN1CN(C(=O)c2ccccc2)CCC1=O,1.3186,174.999,274.6746847,0.637113683
RIFYUB01,Oc1cccc2ccc(/C=C/c3ccc4ccccc4n3)nc12,1.3034,241.981,379.8085653,0.637113067
GAYGIW,N#CC1(Cc2ccccc2)C2=C(C(=O)c3ccccc3C2=O)N2CCCC21,1.3157,284.77,446.9709024,0.637110824
CEBXEO,COc1ccc(N2C(=O)c3ccccc3C2(O)C(O)c2ccccc2)cc1,1.3312,287.013,450.4918992,0.637110235
VACJUG01,CCOC(=O)C1=C(C)NC(=O)NC1c1ccco1,1.372,192.855,302.7028788,0.637109897
LUBBUF,CN1C(=O)C=CC(O)C1O,1.3786,109.787,172.3215716,0.637105378
DUKHUP,C1=NOC(c2ccc(OCc3ccccc3)cc2)CC1,1.2911,218.893,343.5747172,0.637104505
TIYDAJ,COc1ccc(/C(C)=N/N2C(=O)c3ccccc3NC2c2ccc3ccccc3n2)c(O)c1,1.3456,344.509,540.7429829,0.637103043
CAHKOO,O=C1CC2Nc3ccccc3C23CC(=O)N2CCC1C23,1.366,207.661,325.9458475,0.637102763
NENXAF,CN1C(=O)NC2C1NC(=O)N2C,1.4297,125.858,197.5487667,0.637098384
BAZZUZ,CC(=O)Nc1cccc2c1C(=O)OC1(CC1)C21CC1,1.3306,204.42,320.8694455,0.637081539
WAKKEB,COc1ccccc1/C=N/NC(=O)CC#N,1.3069,175.73,275.8371422,0.637078816
EVOYUM,O=C1NC(=O)C(Cc2ccccc2O)n2c1nc1ccccc1c2=O,1.3911,254.835,400.0082382,0.637074379
XOTQON,CC1(C2C(C=O)C3C4OC4C2C2(C)c4ccccc4C(=O)N32)c2ccccc2C(=O)N1C=O,1.3752,340.143,533.9143827,0.637074054
HIRNAY,O=C(/C=C/c1ccccc1)c1ccc(/N=C/c2ccccc2)cc1,1.2476,263.829,414.1264525,0.637073528
NAMRUP,COC(=O)/C(=C/N(C)C)c1ccccc1O/C(=C\N(C)C)c1nc(-c2cccnc2)no1,1.3232,347.943,546.1590089,0.63707271
LOJJEC,O=C1NC(C(=O)Nc2ccccc2)(c2c[nH]c3ccccc23)c2ccccc21,1.3325,291.48,457.5306017,0.637072141
IMEHAM,CNc1cccc2c1C(=O)C1(O)C(=O)NC(C)(C)C1C2,1.3473,215.245,337.8781054,0.637049269
PIDXEF,O=C(O)COc1cccc(-c2ccccc2-c2nc(-c3ccccc3)c(-c3ccccc3)o2)c1,1.3185,358.762,563.1645087,0.637046537
PELHET,CC(C)(C)n1c(=O)c2nn3c(=O)n(C(C)(C)C)c(=O)c3nn2c1=O,1.3992,252.628,396.56314,0.637043574
EXPIBL,CCOC1CC(N2C(=O)c3ccccc3C2=O)C(=O)O1,1.3863,209.91,329.5079031,0.637040866
AYEMEX,O=C1c2ccccc2-c2[nH]c(-c3ccccc3)c3cccc1c23,1.3162,237.18,372.316202,0.637039158
DETGOX,CC(C)Oc1ccc(-[n+]2cc(=O)o[n-]2)cc1,1.342,173.486,272.3344307,0.637032929
BUWXOJ,COC(=O)c1c2ccccc2nc2ccc3ccccc3c12,1.3207,229.956,360.9823127,0.637028441
ZIHHOQ,COC(=O)C1(C(=O)OC)CC(c2ccccc2)[N+]([O-])=C1c1ccccc1,1.338,279.188,438.2672433,0.637026847
YONMEU,O=C(NC(Cc1ccccc1)C(=O)NCc1ccccn1)c1ccccn1,1.3091,291.034,456.8630465,0.63702679
UBAWON,Cc1ccc(C(=O)/C=C\Nc2cccc3cccnc23)cc1,1.2749,239.071,375.2941192,0.637023038
LEPRAZ,COC(=O)N1CCC2C=CC3OC(=O)CC3C21,1.384,181.222,284.4858665,0.637015829
PAJZEH,CC(=O)N/N=C1\C=C(C)C(=O)c2ccccc21,1.3157,183.385,287.8817746,0.63701497
EKAREP,COC(=O)C12CC3COC4CCCN(C1=O)C34O2,1.4363,186.403,292.6196439,0.63701465
FIZTOA,COc1ccc(-c2nc(-c3ccccc3)c(-c3ccccc3)n2-c2ccc(C)cn2)cc1,1.2873,342.817,538.1619957,0.63701451
GUDQEC,CCn1c2ccccc2c2cc(Nc3ccccc3C(=O)O)ccc21,1.3195,264.66,415.4795122,0.636998919
GISSIL,Cc1cccc(Oc2cccc(C#N)c2C#N)c1,1.2618,196.233,308.0615842,0.636992764
HUVGIP,C#CCC1OC(n2cnc3c(N)ncnc32)CC1[N-][N+]#N,1.3681,219.671,344.8568991,0.636991751
XEXPEW,CN1C(=O)N(Nc2ccccc2)C(=O)/C1=C/C#N,1.3378,191.411,300.4923544,0.636991249
ZEXTON,O=C1NC2C3CC4CC3CC(C4)C2C(=O)c2ccccc21,1.3543,219.588,344.7269481,0.636991106
FAQROE,CCOC(=O)c1cc[nH]n1,1.3396,110.594,173.6199416,0.63698904
MUBNUT,CC1=NN(c2ccccc2)C(=O)/C1=C(\Nc1cccc2ccccc12)c1ccco1,1.3161,315.982,496.0573781,0.636986796
BAGYIT,O=C1C2CC=C(c3c(-c4ccccc4)[nH]c4ccccc34)CC2C(=O)N1c1ccccc1,1.3133,336.806,528.7519937,0.636982941
WUWXAP,O=C1/C(=C/c2ccc(O)cc2)N=C(/C=C/C=C/c2ccccc2)N1c1ccccc1,1.2842,323.009,507.0926684,0.636982193
XOZQUB,CN1c2ccccc2C(=O)N2CCC3(OC21)C(=O)Nc1ccccc13,1.381,256.688,402.9774671,0.636978544
RIXVUQ,N#[N+][N-]C1COC(C(=O)O)C1OCc1ccccc1,1.3755,202.318,317.6214178,0.636978455
FEGMOU,COC(=O)C1(C(=O)OC)NCCC12CC1C(OC)=CC2n2c(=O)n(-c3ccccc3)c(=O)n21,1.4097,342.281,537.3531724,0.636975862
FAHXIV,COC(=O)CC1C(=O)N(Cc2ccccc2)C(=O)N1C(C)=O,1.3588,236.732,371.6502012,0.636975304
HEYBOF,O=C1C2C3COCC3C2C(=O)N1Cc1ccccc1,1.3505,201.374,316.1413433,0.636974582
IGOQUQ,CC12c3ccccc3NC3OC1Nc1ccccc1C32C,1.3396,219.622,344.7913265,0.636970779
INIMID,COc1cc(COC(=O)c2cc(N)on2)cc(OC)c1OC,1.3818,235.848,370.2650519,0.636970729
EVADIP,Cc1cccc(-c2cc(-c3ccccc3)no2)c1,1.2726,195.409,306.7787091,0.63697054
ATISON,Cn1cccc1/C=C/C(=O)c1ccc2ccccc2c1,1.2635,218.593,343.1801928,0.636962752
SIDRUV,COc1ccc(/C(C#N)=C/c2ccc3ccc4cccc5ccc2c3c45)cc1,1.2764,297.607,467.2304624,0.636959753