name,smiles,Density,Vint,Veff,pc
NACYAV,Nc1ccc(C23Oc4ccccc4-c4c2c(nc2ccccc42)Oc2ccccc23)cc1,1.3878,325.599,495.54375,0.657053994
DXABIM01,Cc1cc(=O)n2c(=O)cc(C)n12,1.3944,128.373,195.3784236,0.657047988
YIZZOZ,CN(C)c1ccc(-c2c(/C=C3\C=Cc4ccccc4N3C)c(=O)c2=O)cc1,1.3338,291.341,443.4149084,0.657039253
ZIZQUX,CC(=O)c1cnoc1Nc1ccccc1,1.3612,161.974,246.5210566,0.657039209
FEDBOF,Nc1ncnc2c1ccn2C1CC(O)C(CO)O1,1.4502,188.17,286.392914,0.657034413
ROGJIH,COc1ccc(-c2c(C#N)c(=O)[nH]c3c2c(C)nn3-c2ccccc2)cc1,1.3666,284.325,432.7418682,0.65703141
WETFOR,Cn1nnnc1C(N)=O,1.4555,95.238,144.9524218,0.657029381
PANTOP,OCCNc1ccc(-c2ccc(NCCO)c3ncccc23)c2cccnc12,1.372,297.556,452.8817804,0.657027977
PAANTQ,O=C1c2cccc(Nc3ccccc3)c2C(=O)c2c(Nc3ccccc3)cccc21,1.3599,313.007,476.4035711,0.657020684
XIZTIJ,COc1cccc2c1-c1oc(C#N)c(C#N)c1CC21Oc2cccc3cccc(c23)O1,1.4069,314.923,479.3247208,0.657013891
YUXNOU,NC(=O)N1CC(c2ccccc2)CC1=O,1.37,162.532,247.380767,0.657011464
KUSKAL,O=C(CN1C(=O)C2CC(O)CN2C(=O)c2ccccc21)c1ccccc1,1.3976,273.325,416.0133992,0.657010088
TEKWUB,CC(=O)Cn1ccnc1-c1nccn1CC(C)=O,1.3689,196.154,298.5558103,0.657009488
JEZMAF,COc1cccc(/C=N/NC(=O)c2ccccc2N)c1O,1.3786,225.637,343.4323905,0.657005589
OGECUZ,Cn1nc(C(=O)O)c2ccccc21,1.3978,137.418,209.1593031,0.657001616
HUMCAW,COc1ccc(/C(C#N)=C/c2ccc(C(=O)O)cc2)cc1,1.3353,228.028,347.0801285,0.6569895
EQUCOK,O=C1c2ccc3c4c(ccc(c24)C(=O)N1CCOCCO)N(CCO)CCO3,1.4376,293.046,446.0468936,0.656984735
BZTZAD,O=C(O)Cn1nc2ccccc2n1,1.4213,135.905,206.8638459,0.65697802
BATBOP,COc1ccc2nc(-c3ccccc3O)c(CO)cc2c1,1.3682,224.148,341.1805906,0.656977584
QOSDAF,COc1ccc(-c2cc(-c3cnccn3)nc(-c3cnccn3)c2)c2ccccc12,1.3678,311.98,474.8739441,0.656974348
UKACIV,CC1(C)CC(=O)c2c(n3oc(=O)cc3c3ccccc23)C1,1.3943,219.95,334.7940071,0.656971139
BAKFUO,Nc1ncco1,1.4065,65.179,99.21375157,0.656955301
CUWLOX,CCOC(=O)c1cc2c(=O)c3ccccc3oc2[nH]1,1.4252,196.777,299.5288117,0.656955166
BOAZME,[N-]=[N+]=C(C(=O)c1ccccc1)c1ccccc1,1.3137,184.421,280.7223164,0.656951689
DIAZNE,[N-]=[N+]=CC(=O)CCC(=O)C=[N+]=[N-],1.3679,132.428,201.579863,0.656950541
POVSOL,CC(=O)C1COc2c(c(=O)n3c4ccccc4c4cccc2c43)C1c1ccccc1,1.3775,311.348,473.9328212,0.656945428
UKUWUU,O=C1CCCC2=C1C(C(=O)c1ccccc1)n1c(nc3ccccc31)N2,1.3899,269.319,409.9612394,0.656937715
NAKJIT,COC(=O)C(C)(C)C1NC(OC)=Nc2[n-]o[n+](=O)c21,1.4717,200.211,304.7646356,0.656936457
PIFGIV,COc1cc(/C=N/Nc2cnccn2)ccc1O,1.3875,191.917,292.1411604,0.656932422
TERRUD,CC(=O)NC(CCC(=O)O)C(=O)O,1.4292,144.311,219.6747953,0.656930167
HINCIS01,Cc1ccc(C2C(C#N)=C(N)Oc3c2c(=O)oc2ccccc32)cc1,1.3856,259.888,395.6154695,0.656920722
CUBSIB,COC(=O)c1ccccc1/N=N/Nc1ccccc1C(=O)OC,1.3853,246.559,375.329711,0.656913089
FOVWAP,COc1ccc(C(=O)NN)cc1,1.3669,132.536,201.7578918,0.65690615
WITYAC,CCOc1ccc(N2C(=O)c3ccccc3C2=O)cc1,1.3685,212.9,324.0985718,0.656898914
OYORAY,Cn1c(=O)c2nc3ccccn3c2n(Cc2ccccc2)c1=O,1.4,238.509,363.0921776,0.656882783
SELCES,O=C1OC(=O)N2Cc3ccccc3CC12,1.4349,154.366,234.9979222,0.656882404
ACEQIK,CCOC(=O)n1cnc(C(N)=O)c1N,1.4472,149.297,227.2829096,0.65687737
RAGNAQ,N#Cc1c(Nc2ccccc2)c(/C=N/NC(=N)N)c[nH]c1=O,1.3714,234.736,357.3524962,0.656875221
NIPQOU,C/C(=N\NC(=O)c1cnccn1)c1ccccc1O,1.3846,201.755,307.1450672,0.656872017
SARLAB,Cc1cn2c(nc1=O)OCC21OC(CO)C(O)C1O,1.5028,196.04,298.445209,0.65687099
KERPON,COC(=O)C1(CCC#N)CCCC1=O,1.3532,157.259,239.4071058,0.656868556
MONDOJ,C/C(=N\N)c1nc2c(=O)n(C)c(=O)n(C)c2nc1C,1.4194,201.435,306.6597562,0.656868063
VIGXEO,CC(=O)NC(=O)c1ccccc1,1.3333,133.404,203.0922998,0.656863899
OTENAE,COc1cc(OC)c(C(=O)Nc2ccccc2-n2cccn2)cc1OC,1.3852,278.081,423.346972,0.65686309
FOMRIJ,CC(=O)Nc1ccccc1C#N,1.3083,133.451,203.1657254,0.656857842
QUYQUY,CC(=O)CNC(=O)/C=C/c1ccccc1,1.2967,170.84,260.0901831,0.65684909
IPUZID,CC1(C)CCc2c3n1c1ccccc1nc-3c1ccccc1c2=O,1.3605,251.857,383.4355465,0.656843118
LUSJAN,O=C(N/N=C/c1ccncc1)N/N=C/c1ccccc1O,1.3812,223.573,340.3760201,0.656841219
XAYLIV,CC1(C)OC2C(O)C(O)C3C(NC(=O)c4cnnn43)C2O1,1.506,214.465,326.5097629,0.656841003
QANBIS,COC(=O)C1=C(c2ccccc2)C2=CC(C(=O)OC)(C(=O)OC)c3ccccc3N2C1=O,1.4108,334.86,509.8048496,0.656839573
PUQSEZ,O=C1CC2CCc3cccc(O)c3N12,1.3913,148.232,225.677102,0.656832256
AMACMF,CC(=O)c1c(N)oc(C)c1C#N,1.3552,132.04,201.0298655,0.65681783
FEZXEQ,Nc1nn2c(c1/N=N/c1ccccc1)NC(=O)CC2,1.4166,197.189,300.220044,0.656814906
UGUYUR,C/C(=N\NC(=O)c1ccccc1)c1nc2c(=O)n(C)c(=O)n(C)c2nc1C,1.4019,284.866,433.7105287,0.656811355
IFANIO,O=C(Nc1ccccc1)Nc1ccc2cc3ccccc3cc2c1,1.3431,253.469,385.9108575,0.656807123
SUMTUS,COc1cccc(-c2[nH]c3c(c2C2C(=O)N(C)C(=O)N(C)C2=O)C(=O)c2ccccc2C3=O)c1,1.4274,349.295,531.8100996,0.656803999
IDOSUR,O=C1OCCN1CCn1c(=O)c(-c2ccccc2)nc2ccccc21,1.3904,262.884,400.2530796,0.656794447
ELADOK,O=C1c2ccccc2C(=O)N1Cc1cccc2cc3ccccc3nc12,1.3703,269.109,409.7336637,0.656790066
SEZQIY,NC(=O)NN1C(=O)c2ccccc2C1=O,1.4464,154.617,235.4147811,0.656785437
PEYGOQ,Cn1c(=O)c2c(ncn2CC2OCCO2)n(C)c1=O,1.4713,197.256,300.3385843,0.65677875
KEPSAZ,COC(=O)c1nnn(Cn2nnc(C(=O)OC)c2C(=O)OC)c1C(=O)OC,1.4876,280.126,426.5220417,0.656767934
ZIPXUT,COc1ccc(-c2nnc(-c3ccc4ccccc4n3)n2N)cc1,1.3747,251.586,383.0815395,0.656742688
MALROH,CC12C(C3CCC1n1c(=O)ccc(=O)n13)C1CCC2n2c(=O)ccc(=O)n21,1.466,273.868,417.0172746,0.656730588
NUZJAT,CC(=O)C1(C)OC12C(=O)C1C=CC2n2c(=O)n(C)c(=O)n21,1.4633,216.939,330.3332299,0.656727753
IVUNOE,COC(=O)CN/C=C1\C(=O)C=Cc2ccccc21,1.359,195.07,297.0378922,0.656717561
ZIDMUU,O=C(CNC(=O)OCc1ccccc1)N/C(=C\c1ccccc1)C(=O)O,1.3785,280.148,426.589976,0.656714915
OKOTAL,c1ccc(-n2nnnc2-c2cc3ccccc3o2)cc1,1.3864,206.153,313.9203091,0.656704884
FECHOK,CNc1c(C(N)=O)ncn1COCCO,1.4137,165.16,251.4998966,0.656700071
ROJHOQ,COC(=O)Cc1ccc(-c2cnc3ccnn3c2)cc1,1.3634,213.636,325.3245926,0.656685676
LOBREB,COc1ccc(Cn2cc3c(c2)C(=O)OC3)cc1,1.3774,192.454,293.0699111,0.656682903
PEYQUG,Cc1cn(CCC#N)c(=O)[nH]c1=O,1.3722,142.305,216.7051251,0.656675747
TIVDUY,N#Cc1ccc(/N=N/c2ccc(O)cc2)cc1,1.334,182.349,277.6893685,0.656665399
YAGHIZ,O=C1c2cccnc2C(=O)N1Cc1ccccc1,1.3806,188.041,286.3581503,0.656663691
VAKQUU,CC(C)(O)CCC1(O)C(=O)c2ccccc2-c2nc3ccccc3nc21,1.3672,277.676,422.8595378,0.656662497
BACTOS,COC(=O)c1cc(-c2ccccc2)nc2[nH]c3ccccc3c12,1.3697,240.514,366.2673864,0.656662343
SIFHEV,c1ccc(Nc2nnc(-c3ccccc3)o2)cc1,1.3585,190.308,289.8137696,0.65665617
BUWXID,COC(=O)c1c2ccccc2nc2ccccc12,1.3555,190.72,290.4414253,0.65665564
LUQGEM,Oc1cccc2ccc(Cn3c(-c4ccc5cccc(O)c5n4)nc4cc5ccccc5cc43)nc12,1.3853,368.509,561.1955635,0.656649881
VETRAQ,C/C(=N\O)c1ccc(/N=C/c2c(O)ccc3ccccc23)cc1,1.3424,247.037,376.2094963,0.656647433
FIZWIU01,[NH3+]C(Cc1ccccc1)C(=O)NCC(=O)NCC(=O)[O-],1.3825,220.153,335.2693216,0.656645228
WACGAI,O=C(c1ccccc1)c1cc2c(o1)c1c3c(cccn32)CCC1,1.3703,239.607,364.9009187,0.656635782
QIXMOA,COc1ccc(C(=O)N/N=C/c2c(O)ccc3ccccc23)cc1,1.3668,255.383,388.9265313,0.656635584
OVAWIU,Cc1c(/N=C/c2cc(O)ccc2O)c(=O)n(-c2ccccc2)n1C,1.3728,256.655,390.8687951,0.656626989
BESGAH,COC(=O)c1c(C)c(=O)n2c(=O)c(C)c(C(=O)OC)n12,1.4508,210.493,320.5703555,0.656620291
JARBOU,Nc1ccc(-c2nnc(-c3ccc(N)cc3)o2)cc1,1.3734,200.149,304.8195027,0.656614811
UGUHOT01,C[NH+]1CC(O)CC1C(=O)[O-],1.3978,113.167,172.3491967,0.656614607
QOKTES,COc1cc2c3ccccc3[nH]c2c2ncccc12,1.3688,197.628,300.9837052,0.656606975
OBAKIO,COc1ccc2cc3c4c(cccc4c2c1)N(C)C3=O,1.3734,208.872,318.1119414,0.656599055
NILSEJ,Cc1nn2c(-c3ccccc3)ccnc2c1C=O,1.3556,190.698,290.4337608,0.65659722
YOVWUE,C/C(O)=C1/C(=O)NC2(O)c3ccccc3C(=O)C12O,1.4574,195.313,297.4628911,0.656596187
UBAWIH,COc1ccc(C(=O)/C=C/Nc2ccc3ncccc3c2)cc1,1.3302,249.282,379.6599217,0.656592876
BEZGES,O=c1n(C2OC(CO)C(O)C2O)ccc2nccn12,1.4889,195.587,297.8858321,0.656583761
IZIKIO,CCOC(=O)c1cc(-c2ccc(OC)cc2)nc2cc3c(cc12)OCO3,1.4044,272.589,415.1626196,0.656583679
NEZYAU,O=C(O)c1cccc(/N=C/c2ccccc2O)c1,1.3658,192.444,293.1082934,0.656562794
COYROZ,CCCn1cc(C(=O)OC)c(=O)c2cccnc21,1.376,194.999,297.0017401,0.656558443
NUZSIK,O=c1[nH]nc(-c2ccc(O)cc2)c2ccccc12,1.3868,187.17,285.0779221,0.656557332
BEMJOS,COC(=O)/C(=N/O)c1ccccc1,1.3637,143.155,218.0421783,0.656547284
MATQUT,COc1c2ccccc2c(OC)c2c(C)cc(=O)[nH]c12,1.3784,212.849,324.1991323,0.656537846
HIPPIF,CCC(C)n1c(=O)c2ccc3c(=O)n(C)n(C)c4ccc(c1=O)c2c34,1.4059,261.446,398.2211184,0.656534744
FASROJ,Nc1ccccc1C(=O)N/N=C/c1c[nH]c2ccccc12,1.3625,222.539,338.9656465,0.656523758
WEZBOT,O=C(NCCNC(=O)C(O)C(O)C(O)C(O)C(O)CO)C(O)C(O)C(O)C(O)C(O)CO,1.4866,349.218,531.9207576,0.656522602
YUBNIV,O=CNC(=O)c1ccccc1,1.3527,120.126,182.9737376,0.656520447
ANUWUD,COC(=O)c1cc(C(=O)OC)c2[nH]c3ccccc3c2c1,1.3993,220.555,335.946581,0.656518067
REHSUS,O=c1n(-c2ccccc2)c(=O)n2n1C1C=CC2C1O,1.4501,193.275,294.3983976,0.656508329
QUBMUX,O=C1C2C3C=CC(C3)C2C(=O)N1c1cccnc1,1.4013,186.785,284.5166994,0.656499251
QAVYES,O=c1ccn(-c2cc(CO)cc(CO)c2)c(=O)[nH]1,1.4213,190.284,289.8481399,0.656495502
KONWER,Cc1cc(C)n(CCCn2c(C)cc(C)c(C#N)c2=O)c(=O)c1C#N,1.3236,276.874,421.7475175,0.656492305
ZAFXEN,Nc1ccc(C(=O)N/N=C/c2cccc(O)c2O)cc1,1.3942,211.977,322.8959294,0.656487062
GUVYEC,COc1ccc(-c2cc(-c3ccco3)n[nH]2)cc1,1.3674,191.408,291.5703166,0.656472861
ACUJOX,COC(=O)C1=C(C(=O)OC)C2(c3ccccc3)C(=O)OCC(C)N2O1,1.436,263.501,401.3893408,0.65647234
IDIYIE,COC(=O)c1cc(Oc2ccc(C#N)c(C#N)c2)cc(C(=O)OC)c1,1.3783,265.811,404.9085949,0.656471617
BATXID,O=C1OC(c2cc(-c3ccccn3)nnc2-c2ccccn2)c2ccccc21,1.3802,289.163,440.4905439,0.656456771
IFOPUR,CC(C)=C1C(=O)OC(=O)/C1=C(\C)c1c(C)n(Cc2ccccn2)c2ccccc12,1.3413,313.845,478.0901726,0.65645566
HANKUC,Cc1cc2cc3c(C)cc(=O)n4c3c(c2o1)CC=C4,1.3792,198.463,302.3257978,0.656454069
LIMFUI,COC12C(=O)N(C)C(=O)N(C)C1=NC(=O)N2C,1.4637,178.806,272.3827086,0.656451362
BIZGAT,COc1ccc2cc(O)c(=O)[nH]c2c1OC,1.4182,169.925,258.8540842,0.656450913
TUNWUV,O=C1Nc2ccccc2C12OCCO2,1.4464,143.993,219.352405,0.65644596
RIZFOW,N#Cc1ccc(CC(=O)c2ccc(C#N)cc2)cc1,1.2938,207.329,315.8442626,0.656427944
XEKVIV,C#Cc1ccc(Oc2cncc(Oc3ccc(C#C)cc3)n2)cc1,1.3283,256.114,390.1652117,0.65642449
MOZLAO,CN1C(=O)C2ON3C4CCCC(C4)CC3C2C1=O,1.4232,191.58,291.8555168,0.656420691
HIRZUE,COc1ccc(/C(N)=N/O)cc1,1.3625,132.865,202.4094402,0.656417012
HUHLIG,COC(=O)Cc1cc(C)nc2nc(C#N)c(C#N)n12,1.3829,201.055,306.2973332,0.65640467
QAHKEQ,COc1ccc2[nH]cc(Cc3c[nH]c4ccc(OC)cc34)c2c1,1.3556,246.161,375.0153558,0.656402455
TUYMEF,CC(=O)NC1=C/C(=C/[N+](=O)c2ccc(N(C)C)cc2)C=CC1=[N+]([O-])[O-],1.3889,268.507,409.0616575,0.656397379
HEXFUL,N#CC1(C(N)=O)CC1c1ccccc1,1.3051,155.412,236.7660004,0.656394921
YUMKIA,CC(=O)c1c(Nc2ccccc2)n2ccccc2nc1=O,1.3783,220.722,336.2655081,0.656392032
RIZBAG,CCOC(=O)C(=O)Nc1ccc(-c2cnoc2)cc1,1.3943,203.316,309.7528231,0.656381427
FUSTAR,Cc1ccc(O)c(C(=O)Oc2ccccc2N2C(=O)c3ccccc3C2=O)c1,1.3976,290.975,443.3039457,0.656378096
EQUBOJ,NC(=O)c1c[nH]c(C(O)c2ccccc2)cc1=O,1.3907,191.305,291.4555303,0.656378007
CIVCAP01,O=c1n(CC2CO2)c(=O)n(CC2CO2)c(=O)n1CC1CO1,1.4598,221.831,337.9625695,0.656377422
GLYALB04,CC(NC(=O)C[NH3+])C(=O)[O-],1.398,113.885,173.5067364,0.65637221
UDARIB,COc1ccccc1NC1OC(=O)c2ccccc21,1.3809,201.346,306.7576911,0.656368221
YIRGOW,O=C1c2ccccc2C(=O)N1c1ccc(Oc2ccc(N3C(=O)c4ccccc4C3=O)cc2)cc1,1.4074,356.327,542.8818342,0.656361988
NIZPEU,COC(=O)c1ncn(-c2ccccc2)n1,1.3867,159.612,243.1796154,0.656354356
PEPTIQ,Oc1ccc2ccccc2c1N1Nc2c(ccc3ccccc23)O1,1.3771,248.593,378.7696167,0.656317162
LANKOB,N#Cc1ccc(OCCCCN2C(=O)c3ccccc3C2=O)cc1C#N,1.3496,278.695,424.6383325,0.656311451
DOTXAO,COc1ccc(N/C=C2/C=CC(O)=CC2=O)c(OC)c1,1.3777,216.041,329.179095,0.656302308
YONGUF01,C/C(=N\NC(=O)c1ccccc1)c1ccc2ccccc2c1,1.3157,238.665,363.6562078,0.656292935
BUQMIK,COC(=O)c1ccc(/N=C/c2ccccn2)c(O)c1,1.3719,203.434,309.9747839,0.656292094
IXOJOU02,CC(=O)/C=C(/C)Nc1ccc(C(=O)O)cc1,1.3392,178.293,271.6697249,0.656285864
OFUDIF,CC1C(=O)N(NC(=O)c2ccccc2)C(C)C(=O)N1NC(=O)c1ccccc1,1.392,297.62,453.5018136,0.656270804
DAMNUD,CC(=O)N1C(=O)Cc2ccccc21,1.3646,139.806,213.036907,0.656252487
SICGAM,CN1C(=O)N(C)C(=O)C2(ON=C(N3CCOCC3)N2C)C1=O,1.4743,229.975,350.4380396,0.656250104
SIXFIP,CCOc1c(Nc2ccc(OC)nc2)c(=O)c1=O,1.3944,193.878,295.4397313,0.656235365
WAMFAS,CCCCn1c2ccccc2c(=O)c2cc3c(cc21)c(=O)c1ccccc1n3CCCC,1.3316,347.163,529.0264034,0.656230006
JAMNOA,COc1ccc2c(c1)CCc1cn(C)c(=O)c(C=O)c1-2,1.3727,213.627,325.545337,0.656212747
KAJRET,C#CCNC(=O)c1ccco1,1.3228,122.781,187.1095969,0.656198303
DUYNUG,Cn1ccc2nc(-c3ccc(C#N)cc3O)nc-2c1,1.3679,199.22,303.5981551,0.656196346
WEXPIY,COC(=O)c1c2nc3c(C(=O)OC)ncc(C)c3oc-2c(C)c(=O)c1N,1.4516,268.06,408.5104429,0.656188855
XEHJUS,Cc1ccccc1-c1cc2nccnc2o1,1.3533,169.154,257.7829801,0.656187619
FICVAP,N#Cc1ccc(Oc2ccccc2C(=O)c2ccccc2)cc1C#N,1.3213,267.273,407.3137447,0.656184584
CUFHET,O=c1c2ccccc2nc2n1C(c1ccccc1)CC2O,1.3815,219.356,334.2902926,0.656184175
MEPRRB,CN(C)C1=Nc2cc(=O)[nH]c(=O)n2C1(C)C,1.3933,173.706,264.7230666,0.656180069
BEWDEN,Cc1ncc(CO)c(/C=N/CC/N=C/c2c(CO)cnc(C)c2O)c1O,1.3777,283.279,431.7103237,0.656178424
MIJWUY,Oc1cccc(/C=N/c2ccccc2/N=C/c2cccc(O)c2O)c1O,1.3909,272.711,415.610855,0.656169098
GEZQEK,COc1ccc(-c2cc(C(N)=O)c3ccccc3n2)cc1,1.3536,223.871,341.1805847,0.656165708
BAWTEY,COC(=O)CC1ONC(=O)N(C)C1=O,1.4849,148.27,225.9674914,0.656156331
KUDZAL,C(=N/N=C/c1ccoc1)\c1ccoc1,1.3513,151.638,231.1034366,0.65614775
METRUZ,CC(C)N1CN2C(=O)N(CO)C3C2N(C1)C(=O)N3CO,1.4702,211.324,322.0715787,0.656139858
UCOQAE,COC12C(=O)c3ccccc3N1CC1OC12,1.4117,167.54,255.3466792,0.656127585
CAZVEF,O=C1CCNC(=O)CCNC(=O)CCNC(=O)CCN1,1.3969,221.632,337.788621,0.656126306
FULRIP,COc1ccc(/C(C#N)=N/c2ccccc2)cc1,1.2993,197.981,301.7465524,0.656116858
GEYCES,CC1(O)C(=O)NC(=O)N(C2CC(O)C(CO)O2)C1Nc1ccccc1,1.4437,264.997,403.8984031,0.656098162
LETLON,O=C(NCCCNC(=O)Nc1ccc2ccccc2c1)Nc1ccc2ccccc2c1,1.3486,333,507.5504903,0.656092362
YIRPIY,O=c1[nH]c2cc(/C=C/c3ccccc3)cc3c2n(c1=O)CC3,1.3738,230.071,350.6691217,0.656091414
DOZXUL,COC(=O)c1ccccc1-n1c2ccccc2c(=O)n2c3ccccc3nc12,1.3983,287.597,438.3510644,0.656088289
CELKOW,COc1cc2c(cc1OC)-c1cncc(=O)n1CC2,1.3972,201.257,306.7575111,0.656078475
CIHGIJ,CCOc1ccc(-[n+]2cc(=O)o[n-]2)cc1,1.3979,160.601,244.7946331,0.65606422
DOTSAG,COC1OC2COC1C([N-][N+]#N)C2OC(=O)c1ccccc1,1.4414,230.605,351.4992395,0.656061163
FETXOR,O=C1c2ccccc2C(=O)N1C1C2C=CCC2C12OCCO2,1.4165,228.502,348.2982274,0.656052721
TECMAP01,c1ccc2c3c(ccc2c1)OC1NC3Oc2ccc3ccccc3c21,1.3922,254.408,387.7877667,0.656049576
GUPRAC,NC(N)=[NH+]CCC(=O)[O-],1.4041,101.696,155.0131563,0.656047541
BIGBEB,Cc1c(-c2nnc(-c3ccccc3)o2)nnn1-c1ccccc1,1.3754,240.09,365.9646677,0.656046939
OJAJOA,C#CCN1C(=O)C2(Nc3ccccc3CO2)c2ccccc21,1.3697,230.744,351.7187992,0.656046821
IGEBUU,COC(=O)CCCC(=O)c1cc2c(nc3ccccn32)c2ccccc12,1.3658,276.092,420.8422693,0.656046267
XODFIH,CCOC(=O)Cc1nc(Cc2ccccc2)c(CC(=O)OCC)nc1Cc1ccccc1,1.3234,355.791,542.32996,0.656041573
TUXPEJ,COC(=O)Nc1nc2ccc(C(=O)c3ccccc3)cc2[nH]1,1.4006,229.533,349.8756996,0.656041561
SOGZUK,Cc1cc(=O)n(C)c(=O)n1CCCCn1c(C)cc(=O)n(C)c1=O,1.3524,269.185,410.3171495,0.656041309
VACVIF,COC(=O)C1(N)c2cccnc2-c2ncccc21,1.3982,187.844,286.3295389,0.65604129
WIKDEZ,Cc1cc(=O)oc2cc(N)ccc12,1.3757,138.633,211.3179932,0.656039734
TEVPIU01,Cc1c(N2C(=O)c3ccccc3C2=O)c(=O)n(-c2ccccc2)n1C,1.3876,261.528,398.6485251,0.656036542
CUYDEF,COC(=O)c1ccc2cnn(-c3ccccc3)c2c1C(=O)OC,1.394,242.339,369.4005378,0.656033154
GUFKIB,Cc1cc(-c2c(O)n[nH]c2C)[nH]n1,1.3965,138.924,211.7642079,0.656031542
IREPAY,O=C1c2cccc(-c3ccccc3)c2Cn2cccc21,1.3368,211.147,321.8589057,0.656023482
OXAPYR,O=C1OCCOCCOC(=O)c2ccc(nc2)OCCOCCOc2ccc1cn2,1.4306,318.406,485.3623127,0.656017148
FIWGUO,Cn1ccc2c1C(=O)NCCC2=O,1.3933,139.231,212.2371795,0.656016068
IXESEJ,CCOC(=O)C1=CN(C(C)=O)c2cnccc2O1,1.4169,190.734,290.7482259,0.656010882
LOGHAT,O=C(N/N=C/c1cccc2cccnc12)c1ccccc1O,1.3693,231.588,353.028518,0.65600366
DIWDOC,CC1=CC(C)n2c(=O)c3cc4ccccc4cc3c(=O)n2C1,1.3724,231.872,353.4657737,0.655995622
DOLJIZ,CN1C(=O)/C(=C/C=C/C=O)c2ccccc21,1.3285,174.72,266.3447136,0.655991995
IJIKAN,COC(=O)N1CC2CC23C1=CC(=O)c1ccccc13,1.391,199.768,304.5303348,0.655987195
GAFRIQ,Cc1ccc(N2C(=O)CC3c4c(ccc5ccccc45)OC32)cc1,1.3612,252.182,384.4388168,0.655974342
SICFAN,O=C(O)CCn1cncn1,1.419,108.281,165.0697563,0.655971163
TAJJAT01,COc1cccc(/C=N/c2ccc3c(c2)Cc2ccccc2-3)c1O,1.3386,256.434,390.9294168,0.655959846
BUSTEP,N#CC12C(=O)C34C5C=CC(CC5C(=O)c5ccccc5)C35OC1C1CCC2C4C15,1.4003,298.049,454.3758121,0.65595261
LUGPAH,O=C(Nc1ccc(O)cc1)c1cccc(C(=O)Nc2ccc(O)cc2)n1,1.3981,271.99,414.6526347,0.655946634
TATFID,O=C1OC2(Cc3ccccc3)OC(=O)c3ccccc3N2C1=O,1.4403,233.735,356.336331,0.65593929
FAZJAS,COC(=O)c1c(C(=O)OC)c2c3ccccc3c3cccc1n32,1.4041,238.225,363.1824305,0.655937567
CANDUR,NC(=O)N1c2ccccc2CC(=O)c2ccccc21,1.379,199.121,303.5681297,0.655935128
SENYUG,CCn1c(=O)c(-c2cc3ccccn3c2)nc2ccccc21,1.3528,232.794,354.9047774,0.655933689
GUQJEK,C#CCN1C(=O)/C(=C2\Nc3ccccc3\C2=N/O)c2ccccc21,1.3683,250.837,382.4134691,0.655931394
BESTEZ,O=C(Nc1ccccn1)c1ccc2ccc3ccc(C(=O)Nc4ccccn4)nc3c2n1,1.3942,328.235,500.4114522,0.655930232
GANJIQ,O=C1NC(c2ccccc2)C(=O)NC1c1ccccc1,1.3649,212.358,323.7562014,0.655919482
HOHRII,O=c1c2ccccc2c2ccccc2n1-c1cccc2cccnc12,1.3555,258.832,394.6122346,0.655914787
WARWIX,O=C1c2ccccc2C(=O)N1CC1Nc2ccccc2Cn2cccc21,1.3796,270.907,413.0219823,0.655914241
WEDFAO,c1ccc(-n2ccc3cccnc32)c(-c2nc3ccccc3o2)c1,1.3695,247.424,377.2343151,0.65588943
SUCHED,CC1(C#N)c2ccccc2CC2C(=O)OC(=O)C21,1.3818,190.016,289.7143633,0.655873592
LUXLEY,O=C1CCC(=O)N1C(Nc1ccccn1)c1ccncc1,1.3844,221.944,338.3954411,0.65587172
URAWOA01,OCC(n1cccn1)(n1cccn1)n1cccn1,1.4223,186.927,285.0063379,0.655869625
ACINDD,CC(=O)C1CC(=O)C(C2C(=O)Nc3ccccc32)C12C(=O)Nc1ccccc12,1.4,291.05,443.767662,0.65586122
XAZSUO,Cc1ccc(/N=C2/C(=O)N(Cc3ccccc3)c3ccccc32)cc1,1.3143,270.264,412.0758282,0.655859872
KEXRUC,N#CC(C#N)=CC1=Cc2ccccc2OC1,1.3082,173.22,264.1113886,0.655859639
QURPEY,O=C1NC(=O)c2ccccc2/C1=C(/C#Cc1ccccc1)C(=O)c1ccccc1,1.3445,305.475,465.7648821,0.65585666
ETOKED,N#CC1=C(N)OC2=C(C(=O)CCC2)C1c1cccc2ccccc12,1.3599,253.173,386.0216396,0.655851833
WOHTEU,N#C/C(=C\c1ccc(OCCO)cc1)c1ccc(N)cc1,1.3262,230.042,350.7534518,0.655850994
EHABAR,c1ccc2c(c1)CN(c1ccc(N3COc4ccccc4C3)cc1)CO2,1.3662,274.35,418.3132813,0.65584817
REMXAI,O=C(Nc1cccc2ccccc12)c1cccc(C(=O)Nc2cccc3ccccc23)n1,1.3585,334.424,509.9120465,0.655846439
ZOLBUX,O=C1c2ccccc2C(=O)c2c(Nc3ccccc3)ccc(Nc3ccccc3)c21,1.3603,312.351,476.2634832,0.655836551
TADQIA,CN1Cc2c(-c3ccccc3)nnn2-c2ccccc2C1=O,1.372,230.291,351.1427795,0.655832936
FEMPOE,Cc1cc(-c2cccn2C)oc(=O)c1C#N,1.3484,172.902,263.6396191,0.655827074
ZUNCUJ,O=C(Nc1ccccc1)c1ccc[nH]c1=O,1.3697,170.212,259.5397988,0.655822347
RUKVOK,O=C1C/C=C\N(Cc2ccccc2)C(=O)CC1,1.3147,189.787,289.3896165,0.655818278
LOVDUX,COc1cccc(O)c1/C=N/c1ccccc1C#N,1.3347,205.691,313.6438532,0.655810716
NELMOH,CCCn1c(=O)c(C(=O)Nc2ccncc2)c(O)c2ccccc21,1.3878,253.564,386.6440999,0.65580724
IROWAN,COC(=O)CC1=C(C(=O)OC)C(c2ccccc2)C(C#N)=C(N)O1,1.3892,257.211,392.2060851,0.655805735
UGELEZ,O=NN1CCCc2ccc3cccnc3c21,1.3769,168.539,256.9958647,0.655804327
AXEFXZ01,CC(=O)OCC(OC(C)=O)C1OC2OC(=O)N(C(C)=O)C2C1OC(C)=O,1.4688,276.629,421.8214512,0.655796426
SOXGIW,COC(=O)c1cc(C(=O)OC)n(Cc2ccccc2C#N)n1,1.3814,235.784,359.5409441,0.655791792
JOSXOE,O=c1n(-c2ccccc2)c(=O)n2n1C1C=CC2C23COCC12C1OC13,1.4657,250.467,381.9326251,0.655788439
MORVAR02,O=C(CO)Nc1ccccc1,1.3498,121.876,185.8466168,0.655788102
NUKXUP,CCOC(=O)c1ncc(-c2ccc[nH]2)o1,1.3988,160.43,244.63713,0.655787615
TIQKEL,COc1nc2ccccc2c2c1ccc1c(OC)nc3ccccc3c12,1.3736,269.649,411.1861006,0.655783354
RUJDUV,COC(=O)c1c(C(=O)OC)c2c3ccccc3n(C)c2c2c1c1ccccc1n2C,1.3888,313.76,478.453568,0.655779413
VIRVOH04,Oc1ccc2ccccc2c1/C=N/c1ccccc1,1.3168,204.35,311.6143569,0.655778514
VUQPII,c1ccc(C2=Nc3c(oc4ccccc34)-c3ccccc3C2)cc1,1.3441,250.444,381.9038566,0.655777614
GUPHUV,C#CCNC(=O)c1ccc(C(=O)NCC#C)cc1,1.2976,201.489,307.2543548,0.655772642
WOBROW,COc1ccc(-c2cn(-c3ccc4oc(-c5ccccc5OC)nc4c3)nn2)cc1,1.3858,312.851,477.0874447,0.655751904
WODVES,COC(=O)C1(c2c[nH]c3ccccc23)C(=O)C(OC)=C(c2c[nH]c3ccccc23)C1=O,1.4068,320.548,488.8330125,0.65574131
ISELEY,C/C(=C/C(=O)c1cccnc1)Nc1ccccc1O,1.334,207.421,316.3175707,0.655736574
FUTDIH,Cn1ncc(=O)c2ccccc21,1.3634,127.839,194.9550524,0.655735762
ZELNUZ,Cc1cc(-c2ccccc2)n2oc(=O)c(-c3ccccc3)c2n1,1.3617,241.585,368.4192108,0.655733993