name,smiles,Density,Vint,Veff,pc
NAPCOW,COC(=O)c1cc(NNC(=O)c2ccccc2)ccc1OC,1.3483,237.886,369.6242217,0.643588775
JOSBIC,CC(=O)N(C1CC(C)C2(C#N)C(=O)N=C(N)C12C#N)N(C)C,1.3414,240.733,374.048632,0.643587436
SURMOI,Cc1cc(C)cc(Nc2ccccc2C(=O)O)c1,1.3024,197.853,307.4230105,0.643585526
WORCUD,CCN(CC)C(=O)c1cnn2c(-c3cnccn3)ccnc12,1.3456,235.207,365.4635042,0.643585467
EBEZOA,CCC1OC(=O)N2CC(O)C(O)CC12,1.4084,152.601,237.110792,0.643585215
WUNNEZ,Cn1c2c(c(=O)n(C)c1=O)C1c3ccccc3OCC1(C#N)C(c1ccccc1)O2,1.379,310.885,483.0522304,0.643584649
DUHZEM,COc1ccc(/C=C/C(O)=C2/C(=O)N(c3ccccc3)N=C2C)cc1,1.3267,269.163,418.2250483,0.643584121
TIMYOF,CC1=C(C(=O)Nc2ccccc2)C(=O)C(C)(C(=O)Nc2ccccc2)N1,1.3514,276.114,429.0263952,0.64358278
RUTGEU,Oc1ccc(/C=N/N=C/c2c(O)ccc3ccccc23)cc1,1.3256,233.889,363.4197641,0.643578096
TOMFOS,O=C(/C=C/c1ccccc1)n1cnc2ccccc21,1.3055,203.098,315.5775532,0.643575559
OHAGUC,Cc1ccc2c(c1)C(=O)N(Nc1ccccc1)C1c3ccccc3C(=O)N21,1.3543,280.244,435.4517659,0.643570705
GOWLAI,COC(=O)CCC1CC(C(=O)OC)(C(=O)OC)c2cc3ccccc3n2C1=O,1.3854,298.634,464.0328212,0.643562236
RICKEV,CCN1C(=O)c2cccc3c(Oc4ccccc4)ccc(c23)C1=O,1.3478,251.439,390.6995727,0.64356098
BUPROW,CCOC(=O)c1[nH]c(N)c(C#N)c1-c1ccc2c(c1)OCCO2,1.3853,241.546,375.329711,0.643556833
SEDCIP,COc1ccc(CC(=O)n2nnc3ccccc32)cc1,1.3435,212.465,330.1433194,0.643553837
OMUNOA,Cc1ccc(-c2ccnc3c2C(=O)c2ccccc2C3=O)cc1,1.3251,241.218,374.8219306,0.643553592
HEXBAQ,COC(=O)c1cc(Cc2ccccc2)c2c(cnc3ccccc32)c1,1.3095,266.967,414.8341484,0.643551166
APEMIT,COC(=O)c1ccc(N(O)c2ccccc2-c2ccccn2)cc1,1.3327,256.697,398.8780543,0.643547564
KIYRAM,CCOC(=O)c1nn(-c2ccccc2)c2nnc3n(-c4ccccc4)nc(C(=O)OCC)n1-n23,1.4103,348.693,541.8300668,0.64354679
IVIQIP,COCOc1cc(C=C(C#N)C#N)c(OCOC)cc1C=C(C#N)C#N,1.3113,285.321,443.3604508,0.643541839
SAFYEF,COc1ccc2[nH]cc(CC#N)c2c1,1.3064,152.217,236.5303943,0.643540973
CITRUT,O=C(c1ccccc1)N1OC2CCC1C1ON=C(c3ccccc3)C21,1.3631,261.955,407.0568347,0.643534213
SIXRAU,O=c1oc2ccccc2c2c1NC(c1ccco1)C1CCOC21,1.4041,235.254,365.5662982,0.643533064
NEHKOC,COC(=O)c1cc(-c2cccc(OC)c2)nc(C)c1C(=O)OC,1.3567,248.202,385.6952775,0.64351838
GAVVEF,O=C(CCn1ccnc1)c1ccccc1,1.2878,166.04,258.0196425,0.643516898
IWEYIU,CC12CC34NCCCC3C(CC1C41C=CC(=O)O1)OC2=O,1.4146,218.416,339.4115765,0.643513702
FORMAM,NC=O,1.2971,37.091,57.63830287,0.643513049
FOBWUR,CC(=O)OCCN(CCOC(C)=O)c1ccc(-c2cc(-c3ccncc3)nc(-c3ccncc3)c2)cc1,1.323,400.8,622.8330147,0.643511167
UCONOP,O=NN1CCc2ccccc21,1.3358,118.448,184.065368,0.643510516
GEQYAF,COC12C=CC34N(C(=O)C(=O)N3C1c1ccccc1)c1ccccc1C1OC14C2,1.3965,295.466,459.1492493,0.643507531
FIYWAM,OCC1C(O)C(O)c2nccn21,1.4303,127.062,197.4528544,0.643505511
SEGGAO,COC(=O)C(O)C(NC(=O)c1nnc(-c2ccccc2)o1)c1ccccc1,1.3727,285.787,444.113202,0.643500348
NUWJUL,O=c1c2nc3n(c2n(Cc2ccccc2)c(=O)n1Cc1ccccc1)C=CCC3,1.3577,302.355,469.8636032,0.643495257
UHIQIL01,COC(=O)C1CC2C1C=Cc1cc(-c3ccccc3)cn12,1.3126,227.236,353.1285367,0.643493732
KOVCED,CN1C(=O)C(=O)C23CCCC2C3c2ccccc21,1.3281,193.996,301.4740823,0.643491468
OBEVOK,CCOC(=O)C(=O)c1cc2ccccc2[nH]1,1.3496,171.872,267.0961078,0.643483731
RENTUA,COc1ccc(C2OC3COC(n4cc(C)c(=O)[nH]/c4=N\C(=O)c4ccccc4)C(O)C3O2)cc1,1.402,365.209,567.5523943,0.643480679
IMEDEK,O=C1C(=O)N(Cc2ccccc2OCCOc2ccccc2CN2C(=O)C(=O)c3ccccc32)c2ccccc21,1.3661,416.258,646.885735,0.643479949
UJUVOK,COC(=O)c1ccccc1-c1nnc(-c2ccc(C)cc2)o1,1.3415,234.263,364.0575435,0.643477945
VUQTEI,Nc1ccccc1C(=O)/C=C/C#Cc1ccccc1,1.2589,209.735,325.9462906,0.643464908
AHIJOR01,Cn1c(N)c(C(c2ccccc2)c2c(N)n(C)c(=O)n(C)c2=O)c(=O)n(C)c1=O,1.3923,305.579,474.8987449,0.643461376
BOXPIP,O=C([O-])C1CC2C[NH2+]CC(C2)C1,1.348,134.049,208.3268018,0.643455373
ROPWEB,Cn1c2c(c(=O)n(C)c1=O)CC1CCCOC1O2,1.4174,190.055,295.3686596,0.643450122
YUPSUY,O=C1C(=O)N(CN2CCOCC2)c2ccccc21,1.3712,191.773,298.0414195,0.643444124
XOGQAO,COc1ccc2c3c(nc(-c4ccccc4)c(-c4ccccc4)c13)-c1ccccc1O2,1.329,322.513,501.2307794,0.643442129
AVITEH,Cn1nc2ccc(N)cc2c1-c1ccc(C=C(C#N)C#N)o1,1.3293,232.375,361.1475328,0.643435103
YODPAJ,Cc1ccc(NC(=O)Cn2cc(-c3ccccc3)nn2)cc1,1.3146,237.44,369.0210573,0.643432117
YIJWEU,CN(C)c1ccc(/N=N/c2ccc(Oc3ccc(C#N)c(C#N)c3)cc2)cc1,1.2974,302.363,469.9230622,0.64343086
TEQXUI,N#CC1CC2NC(=O)c3ccccc3C12,1.3038,162.328,252.2860155,0.64342845
VADJOA,ON=C(c1ccccn1)c1ccccn1,1.3258,160.434,249.3462193,0.643418619
ZOTCTD10,O=C1CC2CCC3CC(=O)N4CCN1C234,1.3964,157.702,245.1008589,0.643416758
LOJVUB01,COc1cc(O)c(/C=N/c2ccccc2)c(OC)c1,1.3288,206.732,321.3040971,0.643415387
NEBHIN,COC1=CC(/N=N/c2ccc(C)cc2)=C/C(=C/Nc2ccccc2O)C1=O,1.3299,290.144,450.9462895,0.643411437
DPFUZO,O=[n+]1o[n-]c(-c2ccccc2)c1-c1ccccc1,1.3485,188.631,293.1746847,0.643408213
ATOSAG,Cc1cc(=O)oc2ccc(OC(=O)c3ccncc3)cc12,1.3736,218.624,339.7953277,0.643399076
RAJCEK,CCNc1c(N(C)C=O)c(=O)n(C)c(=O)n1C,1.365,187.951,292.1223387,0.643398245
VULMOH,CCOC(=O)c1c(Nc2ccc(C)cc2)[nH]c2ccc(C)cc2c1=O,1.3251,271.033,421.2560259,0.643392577
FIGVOG,c1ccc2c(c1)NC1Oc3ccccc3NC1O2,1.3947,183.921,285.8630894,0.643388415
TUHCEF,Nc1ncnc2c1ncn2C1CC2(O)CCCC2(O)CC1O,1.427,228.466,355.1016676,0.64338194
NIYKOY,CCOC(=O)c1cc(C(=O)c2ccc(C(C)=O)cc2)n2ccccc12,1.3352,268.152,416.7864198,0.643379888
AFIFUT,Cc1nc(CO)c(C)nc1CO,1.3219,135.854,211.1582198,0.64337538
QAZYIC,Cc1ccc(C2=CC=C/C(=C3/C=CC=C(c4ccc(C)cc4)[N+]3=O)[N-]2)cc1,1.3095,287.315,446.5772047,0.643371397
POJWAM,CC(=O)c1ccc2c(c1)CNC(=O)CC2,1.3159,164.893,256.2952658,0.643371228
CIGPOX,COC(=O)Cc1c(C(=O)OC)nnn1-c1ccc(OC)cc1,1.3838,235.555,366.1302239,0.643363985
PUJFAC,N#CCNC(=O)c1ccccc1,1.2782,133.787,207.9500224,0.643361316
YIKYAV,COC(=O)c1cn(-c2ccccc2)nc1C(=O)OC,1.3712,202.64,314.9710919,0.64336063
KORREQ,C1=CCC23Oc4ccccc4C2(C1)Nc1ccccc13,1.3391,208.323,323.8056707,0.643358097
TERDID,O=C(O/N=C(\c1ccccc1)n1nnc2ccccc21)c1ccccc1,1.3455,271.644,422.2301365,0.643355309
SUWQAC,COc1ccc(C2=CNC(c3ccc(OC)cc3)C(C#N)(C#N)C2(C#N)C#N)cc1,1.312,321.757,500.1269329,0.643350675
XIDTOT,COc1ccc(-c2c3n(c(=O)[nH]c2=O)CCCC3)cc1,1.3698,212.231,329.8846423,0.643349137
POMMUC,COC1=CC2CCN3Cc4cc5c(cc4C(C1=O)C23)OCO5,1.4074,227.055,352.9285404,0.643345533
POPJIO,COc1ccc(-n2nnc(C(=O)NNC(=O)c3nnn(-c4ccc(OC)cc4)c3C)c2C)cc1,1.3792,358.003,556.4748635,0.643340829
OYAPEL02,COc1ccc(-c2cc[nH]n2)c(O)c1,1.3555,149.806,232.8567041,0.643339863
GERGAL,Cc1cn(C2CC(O)C(CO)O2)c(=O)nc1N,1.4182,181.625,282.3163507,0.643338579
COPZOZ,O=C1C=CC(=O)C2(C1)c1ccccc1-c1c(-c3ccccc3)c3ccccc3n12,1.3291,301.525,468.6886746,0.6433375
RICWAC,C/C=C1/c2ccc(C=O)n2C2CC1C(C(=O)OC)c1c2[nH]c2ccccc12,1.3552,283.91,441.3081169,0.643337363
YEYXEH,CN1C(=O)C2CC3=CC=CC(O)C3N2C(=O)C1CO,1.4064,200.621,311.8477946,0.643329866
HIBWIB,CCOC(=O)C1=C(c2ccccc2)N(Cc2ccccc2)C(=O)C12C(C#N)=C(N)OC1=C2C(=O)CC1,1.3613,377.599,586.9540571,0.643319516
NAWQEK,Cc1cc(-c2ccccc2)ccc1-c1nnc(-c2ccc(-c3ccccc3)cc2C)o1,1.2965,331.382,515.1167281,0.643314383
IGOSUV,Cc1ccc(-n2cc(COc3nnc(-n4nc(C)cc4C)nn3)nn2)cc1,1.3735,282.454,439.0653073,0.643307488
BEHMUZ,COC(=O)C1=C(C(=O)OC)C2C(=CC1c1ccccc1)C=CC=C1C=C(c3ccccc3)C(C#N)(C#N)C12,1.3119,407.288,633.1186006,0.643304429
UJISUE,COc1ccc2nc(-c3nc(-c4ccccc4)c(-c4ccccc4)o3)ccc2c1,1.3209,305.811,475.383463,0.643293307
NULVIC,COc1ccc(N2C=C(C(=O)C(=O)c3ccccc3)CCC2)cc1,1.3121,261.454,406.4318734,0.643291083
EFIXID,COC(=O)C1(C2(O)C(=O)N(C)c3ccccc32)OC(c2ccccc2)=Nc2ccccc21,1.3772,332.088,516.2392321,0.643283151
SUVYIR,NC(=O)/C=C/c1c[nH]c2ccccc12,1.3113,151.586,235.6465393,0.643277005
ROHLAE,CCCCOC(=O)c1ccc(N/C=C2\C(=O)C=Cc3ccccc32)cc1,1.3044,284.293,441.9509732,0.643268184
JIPXOY,O=C1NC2(Nc3ccccc31)c1ccccc1-c1ccccc12,1.3533,235.31,365.8039488,0.643268069
JIPHOF,CO[C@H]1C(=C2C(=O)c3ccccc3C2=O)Nc2ccccc2N1C,1.3558,252.213,392.0820054,0.643265941
HEPDAK,CCOC(=O)/C(Cc1ccc(C)cc1)=C1\C=C2c3ccccc3C(=O)N2c2ccccc2O1,1.3381,348.987,542.5247688,0.64326464
CIDMUA,COC(=O)C12COc3ccccc3C1=NN(c1ccccc1)C2c1ccccc1,1.345,305.091,474.2863642,0.643263275
ISUSUL,O=C1NC(Cc2ccccc2)(OO)C(=O)n2cccc21,1.4007,207.493,322.5641188,0.643261255
FRQUCB,COC(=O)C1=C(C(=O)OC)C2Nc3ccccc3C(=O)C2O1,1.4174,228.405,355.0763096,0.643256094
FEVHAS,Oc1ccccc1/C=N/Nc1ccccn1,1.3228,172.075,267.5065058,0.643255383
RICYOR,COc1ccc(/C=C(C#N)/C(C#N)=C/c2ccc(OC)cc2)cc1,1.2768,264.47,411.1456984,0.643251288
XUSVIT,Cc1nn(-c2ccccc2)c(Oc2ccc3ccccc3c2)c1/C=C/C(=O)c1ccc([N-][N+]#N)cc1,1.3223,380.62,591.7145225,0.64324938
YIRQEW,CCN(CC)C1=CC(=O)/C(=C\Nc2cccc(C(=O)O)c2)C=C1,1.3125,254.04,394.9348267,0.643245373
QOHKIJ,COc1ccc(C2CC(=O)Nc3n[nH]c(C)c32)cc1,1.3627,201.544,313.3246776,0.643243301
ASANOA,COC(=O)c1ccc2c(c1)C(C(=O)OC)C(=O)n1ccc3cccc-2c31,1.3824,269.742,419.3483756,0.643240837
MUBMUS,COC(=O)c1cnn(C)n1,1.3779,109.346,169.9934569,0.643236522
BUXGAD,O=Cc1ccccc1OCc1cccc(COc2ccccc2C=O)n1,1.3388,276.945,430.5500656,0.643235299
RIZWIJ,CN1C(=O)/C(=C(\C#N)c2ccccc2)c2ccccc21,1.2894,215.466,334.9726195,0.643234663
IWUDAF,COc1cc(OC)cc(Oc2ccc(C#N)c(C#N)c2)c1,1.3206,226.542,352.1950675,0.64322877
MUDWAJ,CC(=O)C1=C(N2CCOCC2)/C(=C/c2ccccc2)OC1=O,1.3534,236.07,367.0102171,0.6432246
JARDAK,CCOC(=O)c1cc(C(=O)Nc2ccccc2)c2ccccn12,1.3382,245.935,382.3476184,0.64322357
ZAXVAY,CCN1C(=O)C2CC(O)C(n3nnc(C(=O)OC)c3C(=O)OC)CC2C1=O,1.4275,284.432,442.2060877,0.643211407
BUZLUG,CCOC(=O)C1(O)c2cccc(C)c2-c2nc3ccccc3c(=O)n21,1.3773,260.658,405.2464519,0.643208593
CUPHOK,CC12C(=O)NC(=O)N(CC(=O)OCc3ccccc3)C1C1N(CC(=O)OCc3ccccc3)C(=O)NC(=O)C12C,1.4021,417.607,649.2586116,0.643205947
SIZTOK,CC1(C)NC(=O)N(C(C)(C)C(N)=O)C1=O,1.3661,166.624,259.0532856,0.643203577
QIJXUC,Cc1c(C(=O)O)ccc2[nH]c3ccccc3c12,1.3458,178.635,277.7278584,0.64320159
MUBMAY,CC(C)C(=O)CC1(O)C(=O)Nc2ccccc21,1.3316,186.977,290.6987714,0.643198453
YUPPIJ,CC(=O)OCC1OC(n2nc(-c3ccccc3)c(=O)n3nc(C)nc23)C(OC(C)=O)C(OC(C)=O)C1OC(C)=O,1.4221,418.477,650.6195909,0.643197662
WIFLUV,O=C1C2CN(Cc3ccccc3)CC1C1(O)c3ccccc3C(=O)C1C2c1ccncc1,1.349,335.85,522.1579962,0.643196125
OCIFAH,COC(=O)c1cc2oc(C)c(C)c2[nH]1,1.3605,151.577,235.6622617,0.643195898
WACZAF,COc1ccc2cc(C(=O)/C=C/c3ccc(C#N)cc3)ccc2c1,1.2878,259.689,403.7513037,0.643190493
AQEQOD,C/C(=C/C(=O)c1ccccc1)Nc1cccc2c(N/C(C)=C\C(=O)c3ccccc3)cccc12,1.2874,370.179,575.5466602,0.643178087
ERADEG,COC1OC2COC(c3ccccc3)OC2C(O)C1[N-][N+]#N,1.4142,231.946,360.6266386,0.643174894
FETYUZ,COC(=O)CNC(=O)C(CCC(=O)O)NC(=O)c1cc(OC)c(OC)c(OC)c1,1.3977,314.944,489.6710798,0.643174598
ZUZPER,COc1ccc2[nH]c3c4c(-c5ccccc5)cccc4c4ccccc4c3c2c1,1.3096,304.322,473.1577203,0.643172428
GACXEP,COc1ccccc1-c1cc(-c2ccccc2O)nc2c1C(c1ccccc1OC)Oc1ccccc1-2,1.3421,387.699,602.7929228,0.643171121
XENZEW,COC(=O)c1cc(NC(C)=O)ccc1OC,1.359,175.323,272.5931206,0.643167369
FIPMIA,COc1cc2c(OC)cc1CCCc1cc(C#N)c(cc1C#N)CCC2,1.2851,287.699,447.3167795,0.643166126
LICLUG,Nc1ccc(C2(c3ccc(N)cc3)C(=O)c3ccccc3C2=O)cc1,1.3324,263.016,408.9447822,0.643157735
TOCDAQ,N#CC1=CCC(C#N)=C2C=C1CCc1ccc(cc1)CCC2=O,1.2776,250.891,390.0983661,0.643148041
KEMBOU,COC1=CC(/N=N/c2ccccc2C)=C/C(=C/NC(CO)(CO)CO)C1=O,1.3535,294.452,457.8321077,0.643144059
POZJAS,COc1ccc2c3c1OC1Cc4nnnn4CCC31CC(=O)C2,1.4173,235.198,365.7025275,0.643140209
EJUPIL,CN(C)c1ccc(/C(O)=C2\Cc3ccccc3C2=O)cc1,1.3064,228.189,354.8044377,0.643140208
HOVPAJ,Cc1cccc(NC(=O)c2cccc(C34C=CC(O3)C3C(=O)N(CCC(=O)O)C(=O)C34)c2)n1,1.3902,343.506,534.1143177,0.643131982
MDZANO,CC1=C(C)Cn2c(=O)c3ccccc3c(=O)n2C1,1.3484,191.755,298.1611089,0.643125459
SAGMUK,CN1CCC(C#N)(C(O)c2coc3ccccc3c2=O)C12C(=O)Nc1ccccc12,1.374,311.787,484.8100624,0.643111652
TANNEB,O=c1cnc(-c2ccccc2)c(-c2ccccc2)n1CCO,1.316,237.06,368.6143068,0.643111229
KILROO,CC1=CC(=O)C=C(C)C1=NC(=O)/C=C/c1ccccc1,1.2777,221.589,344.5582914,0.64311034
TIGPUV,O=C(O)c1cc(-c2ccccc2)nn1Cc1ccccc1,1.3232,224.457,349.0190745,0.643108118
HOHVUV,CCN1/C(=C/C=C(\C#N)C(=O)Nc2ccccc2)C=Cc2ccccc21,1.2861,283.28,440.4932431,0.643097265
HUPNUD,N#CC(C#N)=Cc1ccccc1OCc1ccccc1,1.2659,219.418,341.1910069,0.643094324
LINLUS,O=C(c1ccccc1)N1c2ccccc2C2C=Cc3ccccc3N21,1.3186,262.506,408.1935937,0.643091915
SUPJES,CC(=O)N1c2ccccc2C2C3=C(CCCC3=O)OC21,1.3687,209.962,326.4967371,0.643075339
YUDBEG,COc1ccc2c(c1)C1(O)c3cc(OC)c(OC)cc3CCN1C2=O,1.3819,263.609,409.9242864,0.643067534
QESNAG,Cn1cc(C2(c3ccccc3)OC(=O)c3ccccc32)c2ccccc2c1=O,1.3432,291.87,453.8720017,0.643066765
USOFAK,Cn1c(COCc2nc3ccccc3n2C)nc2ccccc21,1.3318,245.477,381.7310936,0.643062627
ARUVIS,CN(CCO)c1ccc(/N=N/c2ccc(C(=O)O)cc2)cc1,1.3342,239.414,372.3057128,0.643057551
DESLIX,CC(=O)/C=C1/CC(=O)Nc2ccccc2N1,1.3404,172.152,267.7102736,0.643053394
EZIYAP,COC(=O)/C=C/c1c(C(C)=O)c2ccccc2n1C,1.3142,208.911,324.8735993,0.643053177
TZHCOS,c1cc2nc(n1)OCCOCCOc1ccnc(n1)OCCOCCO2,1.4177,274.274,426.5274988,0.643039431
UNUPAX,N#[N+][N-]C1CC2C(=O)Nc3ccccc3C(=O)N2C1,1.4029,195.684,304.3166089,0.64302767
GEHHAD,Cc1ccc(/N=C/c2c(CO)cnc(C)c2O)cc1,1.3117,208.499,324.2470288,0.643025167
RODMAB,COc1ccc(-c2ccc3ncc(-c4nnco4)c(NCCCn4ccnc4)c3c2)cc1,1.3513,336.77,523.7291586,0.643023201
OJARAS,O=C1c2ccccc2N2CCCC12OC12CCCN1c1ccccc1C2=O,1.3756,279.562,434.763565,0.643020765
EVOXAO,COc1cc(/N=N/c2ccccc2C)cc(C=O)c1O,1.3344,216.137,336.1276937,0.643020507
NEMMEX,CCOc1c(Nc2ccc(N(C)C)cc2)c(=O)c1=O,1.3253,209.574,325.9252871,0.643012397
WEXROG,CCC(C)C(=O)OC1c2c(c(=[N+]=[N-])c3c(=O)c4c(O)cccc4c(=O)c2=3)C(OC(C)=O)C(C)(O)C1OC(C)=O,1.4056,408.82,635.7899915,0.643011066
UPEGIH,C=C1c2ccc(OC)cc2C(=O)N1c1ccc(OC)c(OC)c1,1.339,248.098,385.8393037,0.643008624
NIKMIG.search2,Cc1ccc2c(c1)/C(=C(/C#N)C(=O)c1ccccc1)C=C(c1ccccc1)O2,1.2972,298.899,464.8526961,0.642997239
NEWJIK,CC(=O)c1c(C)[nH]c(/C=C2\N=C(c3ccc[nH]3)c3ccccc32)c1C,1.3035,269.625,419.3257844,0.642996472
DOFLAO,CCOC(=O)c1cc2c(c(=O)o1)c1ccccc1n2Cc1ccccc1,1.3526,274.015,426.1573472,0.642990205
XESFUZ,Cc1ccc(CCOc2ccccc2-c2cncnc2)cc1C#N,1.2826,262.348,408.0124524,0.642990179
FIYNUY,CC1=NN(c2ccccc2)C(=O)/C1=C(\Nc1ccc(N)cc1)c1ccccc1,1.3159,298.734,464.6041941,0.642986017
AZOXCH,CC(=O)N1CC2CC1C(=O)O2,1.4118,117.27,182.3839911,0.642984065
GUPJOR,Cc1cnc(-c2ccc(-c3ncc(C)o3)cc2)o1,1.3347,192.068,298.7137565,0.642983444
KEHFOT,Nc1ccc(C(=O)N2C3COCOCC32)cc1,1.3746,181.84,282.8075036,0.642981525
MIMDET,CCOc1ccc(N2C(=O)C(=C/c3ccc4c(c3)OCO4)/C(=C\c3ccc4c(c3)OCO4)C2=O)cc1,1.3884,371.547,577.8512464,0.642980356
ROVNEY,COc1cc(-c2nnc(Nc3ccccc3)o2)cc2c1OCO2,1.4074,236.009,367.0577377,0.642975139
TUYLOO,O=C(O)/C=C\C(=O)N1CCOCCOc2ccccc2OCCOCC1,1.3803,282.456,439.298601,0.642970406
MXPMTZ,COc1cc(OC)cc(-c2ncnn2C)c1,1.3377,174.88,271.9883007,0.642968832
CUFFOY,COC(=O)/C(=C/c1cn(C(C)=O)c2ccccc12)N(C(C)=O)C(C)=O,1.3491,270.76,421.1156193,0.642958816
MENSEE,CC(=O)Nc1cccc(O)c1,1.3208,122.115,189.9271376,0.642957092
ZEXXUY,COC(=O)C1(C2CC(=O)N(c3ccccc3)C2=O)C(=O)c2ccccc2N1C(C)=O,1.4014,309.409,481.2309385,0.642953259
UGANOI,COc1cccc(-c2cccc(OC)n2)n1,1.3287,173.639,270.0676232,0.642946378
YAYHOX,CC(C)(O)c1cn(-c2ccccc2O)nn1,1.3458,173.821,270.3512779,0.642944991
HAXPED,O=c1[nH]nc(-c2ccccc2)nc1-c1ccccc1,1.332,199.66,310.5399444,0.642944663
SOGCUN,Oc1ccc(-c2cc(-c3ccccc3O)nn2-c2ccccc2)cc1,1.3344,262.534,408.3318554,0.642942735
WANREK,CCOC(=O)c1cnn2c(C(=O)OCC)c(CCCO)cnc12,1.3718,249.936,388.7393066,0.642939872
PENYAL,CN(C)c1ccc(Cn2c(=O)oc(=O)c3ccccc32)cc1,1.3487,234.413,364.5958205,0.642939351
VIZTII,COC(=O)CNC(=O)C(=O)c1ccccc1NC(C)=O,1.3699,216.736,337.1024928,0.642937992
MEBTEU,COC(=O)c1nn(-c2ccccc2)c2c1C(=O)OCC2,1.3901,208.969,325.0237833,0.642934489
LIKRAA,O=C1N2CCn3cc(nn3)COc3ccccc3C3N4CCCC4OC13c1ccccc12,1.3923,329.108,511.8842611,0.642934399
MUJRUH,C=CCc1cc(-c2cc(CC=C)c3oc(=O)[nH]c3c2)c2oc(=O)[nH]c2c1,1.3712,271.049,421.5819269,0.642933159
URAPUZ,COc1ccc(C(=O)/C=C/c2ccc(OCc3nc4ccccc4[nH]3)cc2)cc1,1.3229,310.026,482.2096606,0.642927808
BUCSOK,Cc1ccn(C(=O)c2ccc(C(=O)n3ccc(C)n3)cc2)n1,1.3393,234.456,364.6694905,0.64292738
GUJQIL,c1ccc2c(c1)nc1n2Cc2ccc(o2)-c2nc3ccccc3n2Cc2ccc-1o2,1.3811,303.129,471.4840614,0.642925233
DOVWEQ,O=C1C=C2CC3C=CC2(C=C3)N1c1ccccc1,1.3161,190.714,296.6389978,0.642916142
SUQXUZ,CCOC(=O)c1cc(-c2nc3ccccc3[nH]2)n2ccccc12,1.3533,240.703,374.4006047,0.642902274
OXOHIV,Nc1ccc(C(=O)/C=C/c2cnn(-c3ccccc3)n2)cc1,1.3206,234.536,364.8098542,0.6428993
WIKBUN,CC1(C)OC(=O)C(=CNn2cccn2)C(=O)O1,1.4181,178.477,277.6155925,0.642892564
BEJYOE,OC1(c2ccccc2)ON=C(c2ccccc2)c2ccccc21,1.3193,243.659,379.0068437,0.642888127
UQUDUH01,CCn1cc(C(=O)O)c(=O)c2cnc(N3CCNCC3)nc21,1.4028,230.692,358.841525,0.64287989
HOFNEV,Nc1ccccc1/N=C/c1c(O)ccc2ccccc12,1.3078,213.959,332.8191498,0.642868658
JATFUF03,COc1nc(OC)nc(OC)n1,1.4107,129.453,201.3677805,0.642868485
EJIVOL,O=C(NCc1ccco1)c1ccnc2ccccc12,1.3374,201.224,313.0106556,0.642866294
ISOCOK,COC1=C(OC)C2C(O)c3ccccc3N3C(=O)CCC23C=C1,1.3715,243.731,379.1367236,0.6428578
OLIJIC,COc1ccc(OC)c(CC2NC(=O)C3Cc4c(OC)ccc(OC)c4C(C)N3C2=O)c1,1.3673,343.683,534.6210631,0.64285346
VEPZAU,CCC1OC(=O)C2OC(=O)C3(CCN=N3)C12,1.4286,167.443,260.4695235,0.642850641
YEXGUG,CCOC(=O)c1cc(C(=O)c2ccccc2)c(N)c(C#N)c1-c1ccccc1,1.3157,300.312,467.1587532,0.64284785
XUYQIT,COc1ccc(C(=O)C2C(=O)Nc3ccccc3C3=C2C(=O)c2ccccc2C3=O)cc1,1.3679,330.194,513.6468915,0.642842399
GEMGAG,COc1ccc2c(c1OC)CN(C)CCc1cc3c(cc1C(=O)C2)OCO3,1.3621,289.315,450.0573735,0.642840262
YASRUI,CC(=O)N1C(=O)/C(=C(/C)C(=O)c2ccccc2)c2ccccc21,1.3243,245.941,382.5852783,0.642839686
WEMWEQ,C[N+](C)(C)CC(=O)[O-],1.2707,98.356,153.0033461,0.642835615
LANYEE,COC(=O)C1CC(=O)N(/N=C/c2ccccc2)C1,1.3396,196.111,305.0719577,0.642835223
SAWVUJ,COC(=O)N1CCCC1=C1c2ccccc2-c2ccccc21,1.3196,235.503,366.3562574,0.642825106
HUCYAI,COc1cc2cc(N)c3c(c2cc1OC)OCc1ccccc1-3,1.3541,242.11,376.637525,0.642819645
CAYPEY,Cc1c(/N=C/c2cccc(O)c2)c(=O)n(-c2ccccc2)n1C,1.3192,248.524,386.6157722,0.642819093
MEXBEY,Cc1ccc(C(=O)NCc2ccc3c(c2)OCO3)cc1,1.3396,214.436,333.5891938,0.642814587
EMIYEE,c1ccc(Nc2nc3c(c4oc5ccccc5c24)CCC3)cc1,1.3393,239.207,372.1269862,0.64281014
DTYROS,[NH3+]C(Cc1ccccc1O)C(=O)[O-],1.3508,143.091,222.602389,0.642809813
VOXFAP,O=NN1C(c2ccccc2)CNC(=O)CC1c1ccccc1,1.3303,236.815,368.4103786,0.642802195
LUDZIT,O=C(c1ccccc1)n1ccc2ccccc21,1.2944,182.318,283.631178,0.642799573
EHESIW,N#CC1=C(N)OC2=C(C(=O)CCC2)C12C(=O)Nc1ccccc12,1.3881,236.152,367.3821085,0.642796681
NOPGEE,COC(=O)/C(=C1\NCCO1)c1ccc(OC)cc1,1.3564,196.029,304.9658208,0.642790066
EDIRUG,COc1cc(/C=C2/C(=C(C#N)C#N)OC(=O)C2=C2C3CC4CC(C3)CC2C4)cc(OC)c1,1.3336,342.709,533.1621866,0.642785645
HACVAK,O=C1CCC(=O)OCCN(c2ccccc2)CCO1,1.3556,207.179,322.3148626,0.642784507
EBEPEH,O=C(/C=C1/c2ccccc2N=C2N(C(=O)c3ccccc3)CCN21)c1ccccc1,1.3339,314.603,489.4378253,0.642784402
EVECAM,Nc1ccc2nc3n(c(=O)c2c1)CCCC3,1.3595,168.885,262.7471824,0.64276617
EJOXEJ,O=C(NOCc1ccccc1)N1Cc2ccccc2NC1=O,1.3742,230.774,359.0329598,0.6427655
EHADOG,O=C(CC(O)(c1ccc2ccccc2c1)c1c[nH]cn1)N1C(=O)OCC1c1ccccc1,1.3607,335.066,521.2983127,0.642752896
DOCXAV,Oc1ccc2ccccc2c1/C=N/OCCCO/N=C/c1c(O)ccc2ccccc12,1.3415,329.519,512.6729063,0.642747054
WABWIF,CC1=C(C#N)C(c2ccc(C#N)o2)C(C#N)=C(C)N1,1.2955,206.042,320.5649683,0.642746464
OBUSOV,Oc1ccccc1CNc1ncccn1,1.3273,161.706,251.5862322,0.642745824
VELQIO,O=C1C=Cc2ccccc2/C1=C/Nc1ccccc1C(=O)c1ccccc1,1.305,287.18,446.8043811,0.642742131
HEKWUP,Cn1c(N)c(/C=N/O)c(=O)n(C)c1=O,1.421,148.774,231.4734884,0.642725874
OFOWOW,O=C(NCc1ccccn1)c1cnccn1,1.3221,172.826,268.8982047,0.642719055
IGOROO,COC(=O)c1c(NC(=O)OC(C)C)ccc(NC(=O)OC(C)C)c1C(=O)OC,1.3773,306.986,477.6389408,0.642715603
WUKGIT,CC(=O)N1C=Cc2ccccc2C1C1C=CC(=O)O1,1.3489,201.835,314.034914,0.64271516
RUCDAW,O=C1NC2(O)c3ccccc3N3C(=O)C(=O)N(Cc4ccccc4)C1C32c1ccccc1,1.3866,327.236,509.1471409,0.642714009
ECAWAG,O=C(/C=C/c1ccccc1)N1C(=O)CCC1=O,1.3323,183.508,285.5213594,0.642711986
NUQWII,Cc1ccc(O)c(C[NH2+]C(CO)C(=O)[O-])c1,1.352,177.697,276.4802066,0.64271147
GEZWEQ,Cn1c(C(=O)Nc2ccc(C#N)cc2)cc2ccccc21,1.309,224.303,348.9998431,0.642702295
GAJXIC,O=C1CCCC2=C1C(C1CC1)n1nnnc1N2,1.3858,177.989,276.9408311,0.642696851
EVOMAE,COC(=O)/C=C/c1cc2ccccc2[nH]1,1.312,163.57,254.5059084,0.642696278
PIFYEL,CCn1cc(-c2cc(-c3ccccc3)nc(OC)c2C#N)c2ccccc21,1.2945,291.158,453.0286287,0.642692275
WACJOZ,O=C([O-])/C=C/CCc1c[nH+]n(-c2ccccc2)c1,1.3095,197.316,307.0182812,0.642684856
KOSDOO,Cc1cc(C=O)c(O)c(/C=N/c2ccc3ccccc3n2)c1,1.3209,234.395,364.712877,0.642683642
YIXJUM,C=C1CN=C(c2ccccc2)C1(C(=O)c1ccccc1)c1ccccc1,1.2764,281.895,438.6287611,0.642673315