name,smiles,Density,Vint,Veff,pc
PASWUC,CC1(C)Cc2c(ccc3ccccc23)C2=CC3(C(=O)N21)C(C(=O)c1ccccc1)=C(O)C(=O)N3c1ccccc1,1.3637,410.717,640.7493442,0.640994804
VEHRUY,CNc1cc(C(=O)OC)c(NC)cc1C(=O)OC,1.3487,198.973,310.4141308,0.640992082
NURNAQ,COc1ccc(/N=C/c2ccc(OC)cc2O)cc1,1.3188,207.514,323.7404337,0.640988824
BESHOZ01,CCN(CC)c1ccc(/C=N/NC(=O)c2cc3ccccc3cc2O)c(O)c1,1.3244,303.136,472.9198485,0.64098811
APOYAG,CN1C(=O)C2C3c4ccccc4C(c4ccccc4)(c4ccccc43)C2C1=O,1.3356,291.004,453.9937899,0.640986741
QAFWEC,Oc1ccccc1CCc1ccc2cccc(O)c2n1,1.3143,214.706,334.9631963,0.640983853
QIPHII,C#CCOC1C(CO)OC([N-][N+]#N)C(O)C1O,1.4032,184.396,287.6766073,0.640983644
VAVREP,CC(C)NCC(O)c1ccc(O)c(O)c1,1.307,171.935,268.2381581,0.640978902
ZZZMRU01,NC(=O)/C=C/c1ccccc1,1.2601,124.229,193.81145,0.640978642
LESDIY,Cc1cccc(C)c1OC(=O)c1c2ccccc2nc2ccccc12,1.308,266.199,415.3098756,0.640964773
XUQYAM,COC(=O)c1ccc(C#Cc2ccc(N)cc2)cc1,1.2821,208.455,325.222479,0.640961229
ELEJOV01,Oc1ccccc1/C=N/C(c1ccccc1)C(O)c1ccccc1,1.2837,262.957,410.2557497,0.64095872
QAGRIZ,O=C1CC2C(C(=O)OCc3ccccc3)C(=O)OCC23CC2COC(=O)N2C3C1,1.4141,300.42,468.7067891,0.640955085
NULNAL,COc1ccc(-c2cc(-c3ccccc3)cc(=O)[nH]2)cc1,1.3025,226.447,353.2969895,0.640953664
KIQKAY,O=C(NC1CCCN(C(=O)OCc2ccccc2)C1c1ccccc1)OCc1ccccc1,1.3172,358.939,560.0111366,0.640949754
TILYAQ,CNC(=O)C(C)N1CCC2(Cc3c([nH]c4ccccc34)CN2C(C)=O)C1=O,1.365,287.088,447.9177629,0.640939083
DUZFUA,N#CC1C(O)C2CC1N(C(=O)c1ccccc1)O2,1.3644,190.406,297.0735898,0.640938833
CEPWAV,CC(=O)N1CCN(C(C)=O)C2C1N(C(C)=O)CCN2C(C)=O,1.3738,240.297,374.9152082,0.640936923
UPAJEC,O=c1c2ccccc2nc2n1-c1ccccc1C2(O)C1CCCCC1,1.3438,263.074,410.4572145,0.640929166
JATWUW,CNC(=O)N(C)c1nc2ccccc2/c(=N/c2ccc(C)cc2)o1,1.3342,256.98,400.9523502,0.64092404
FACCER10,COC(=O)c1cccc(N2Cc3c(C)ccc(C)c3OC2=O)c1,1.3439,246.391,384.4324934,0.640921369
UQIVUO,O=C1NN=C(c2ccccc2)C12CCCC2,1.309,174.083,271.621149,0.640903702
JIYVES,COC(=O)/C=C/C(=O)N1CCNC(=O)C1,1.3791,163.666,255.3691256,0.640899716
BOVSIR,Nc1ccc(/C=C/C(=O)c2ccco2)cc1,1.3037,173.947,271.4113307,0.640898077
YIZPUT,CC(=O)Nc1ccc(/N=N/Nc2ccc(C(=O)O)cc2)cc1,1.3538,234.352,365.6639119,0.640894527
TUBRUD,CN(C)c1ncc(C(=O)O)c(Cc2ccccc2)n1,1.3279,206.069,321.5359125,0.64088953
RIWBIL,N#Cc1c(N2CCCC2)nn(C(=O)/C=C/c2ccccc2)c1N,1.3119,249.165,388.7812949,0.640887314
WOBWUH,Cc1ccc(Nc2nc3nc(C)ccc3o2)cc1,1.3301,191.315,298.5183027,0.640881977
WIFMAC,CN1CC2C(=O)C(C1)C1(O)c3ccccc3C(=O)C1C2c1cccnc1,1.3635,271.738,424.0070114,0.640880912
INTRBP,O=C(c1ccccc1)N(N=c1c(=O)c2ccccc2c1=O)c1ccccc1,1.3371,281.839,439.7720399,0.640875214
WISFUZ,CC(=O)n1c(=O)n(-c2ccccc2)c(=O)n1C(C)=O,1.3919,199.613,311.4742952,0.640865083
PEHPEX,O=C1C=C2CCN3C(=O)CC4CCCCC43C2CO1,1.3684,203.088,316.8980277,0.640862304
JODHUG,CCOc1ccc(-n2nnnc2/N=C/N(C)C)cc1,1.3298,208.182,324.8504221,0.640854947
DILWOK,O=C1CC2(c3ccccc3)N=C(c3ccccc3)C(=O)C2(c2ccccc2)O1,1.3254,294.771,459.9674608,0.640851854
SESWIX,CCN1C(=O)c2ccccc2C1=O,1.3414,138.885,216.7214578,0.640845634
DUDLUJ,O=C1c2ccccc2C23N=C(c4ccccc4)C(C=C(c4ccccc4)N12)O3,1.3424,288.656,450.4317846,0.640842875
SEJCIV,Oc1ccccc1/C=N/c1cccc(/N=C/c2ccccc2O)c1,1.3012,258.538,403.4359267,0.640840299
CBOTCU,N#CC12C=CC(c3ccccc31)C1C=CC2O1,1.3144,178.996,279.3154265,0.640838217
FULBEV,O=C(NN1C(=O)c2ccccc2C1=O)c1ccccc1,1.3649,207.446,323.7119332,0.640835196
LIMBAN,Cc1cc(C)n(C(O)C(O)n2nc(C)cc2C)n1,1.3355,199.32,311.0351371,0.64082792
PIHRAA,COC(=O)c1cccc(C(=O)Nc2cc(C)cc(NC(=O)c3cccc(C(=O)OC)c3OC)c2OC)c1OC,1.3693,416.694,650.2443915,0.64082675
HAKZOJ,COc1ccc(/C=C/c2ccnc(C)n2)cc1,1.2738,188.897,294.7709876,0.640826295
KIZXUN,COC(=O)C1CNC(=O)N1C(=O)OCc1ccccc1,1.3933,212.396,331.440971,0.640826025
PAVNAE,N#Cc1ccc(C2Nc3ccccc3C(=O)N2c2nc3ccccc3[nH]2)cc1,1.3562,286.499,447.0808084,0.640821513
MUHWEU,O=C1OC2(C(=O)N(C(c3ccccc3)(c3ccccc3)c3ccccc3)c3ccccc32)n2cccc21,1.3325,385.06,600.8855148,0.640820906
FASXUV,COc1ccc(C(=O)n2c3ccccc3c3ccccc32)cc1,1.319,242.93,379.093047,0.640818928
PIVMEM,CC12C(C#N)=CC3(c4ccccc4)OOC1(c1ccccc1)C=C(C#N)C32C,1.3058,298.378,465.6201688,0.640818461
XAYKEN,O=C(O)C(Cc1ccc(O)cc1)N1Cc2ccccc2C1=O,1.3581,232.793,363.2754872,0.640816703
IKOHOI,O=C1CC23c4ccccc4C(=O)N2Cc2ccccc2C3N1Cc1ccccc1,1.3372,302.524,472.0918372,0.640815994
NANGEO,CC1(C)CC(=O)C(=NO)C(=O)C1,1.3459,133.678,208.6069598,0.640812752
AKIROE,c1ccc(Oc2cc(-c3ccccc3)cc(-c3ccccn3)n2)cc1,1.3033,264.643,412.985554,0.640804496
EVIZEP,CCOC(=O)/C(C#N)=C/c1ccc[nH]1,1.2957,156.1,243.6036601,0.64079497
QADCEE,Cc1c(NC(=O)c2ccccc2)cnn1-c1ncccn1,1.339,221.81,346.14892,0.640793564
EVEYIO,O=c1[nH]c2ccccc2n1Cc1ccccc1,1.3152,181.31,282.9471529,0.640791039
FAXVUV,CN(CCN(C)C(=O)c1cccnc1)C(=O)c1cccnc1,1.3104,242.102,377.8206849,0.640785456
AZOZUL,Nc1cc(N)c(C(=O)c2ccccc2)cc1C(=O)c1ccccc1,1.3114,256.505,400.2980234,0.640785078
ZIGROW,CC1=CC(=O)C2(C)N=NC3(c4ccccc4CCc4ccccc43)C2C1=O,1.3237,286.3,446.7982208,0.640781424
YIHGOM,Cc1cc(C)c(C2=NOC3Nc4ccccc4C(=O)N(C)N23)c(C)c1,1.3381,267.319,417.1773516,0.640780232
PTZXDE,c1ccc(N2OC3CC2C2CN=NC32)cc1,1.3565,168.733,263.3282672,0.640770555
SEZGIQ,CCOC(=O)c1nc(-c2ccccc2)c(C(=O)c2ccccc2)o1,1.3334,256.24,399.8941347,0.640769588
PEHYEI,Nc1ccn(C/C=C\CNC(=O)c2ccccc2)c(=O)n1,1.3311,227.125,354.4600985,0.640763237
HIMXAC,COc1ccc2c(c(C=O)c3n2CCC2CC32)c1OCc1ccccc1,1.3297,277.795,433.5420392,0.640756778
PAQYEM,CCN1C(=O)C(C#N)=C(C)/C(=N/C=C2/N(C)c3ccccc3C2(C)C)C1=O,1.3052,295.256,460.7926775,0.64075671
TETWOF,O=C(O)c1ccc2c3c1C(=O)N(Cc1ccccc1)C3=CCC2,1.3522,240.085,374.6913801,0.640753999
SEZKAK,COC(=O)C1(C2(O)C(=O)c3ccccc3C2=O)CC2(C(=O)Nc3ccccc32)N2CCCC21,1.3954,340.2,530.9395257,0.64075094
LEVCAS,COc1cc(/C=C2\N=C(c3ccccc3)OC2=O)cc(OC)c1,1.3436,244.783,382.0271206,0.640747703
ENIHUE,COC(=O)c1nc(NC(C)=O)n(C)n1,1.396,150.972,235.6187872,0.640746868
DOQJEZ,COc1cc(/C=C/c2cc(C)[nH]n2)ccc1O,1.3104,186.842,291.6004573,0.640746595
LAUREL,COc1cc2c(cc1O)CC1NCCc3cc(OC)c(O)c-2c31,1.3735,242.575,378.5846496,0.640741774
PUZCIY,NN(C(=O)NCc1nc2ccccc2[nH]1)c1ccccc1,1.3482,221.869,346.2695389,0.640740738
ISAJUH,CN(C)c1ccc(C(=O)[N-][N+]#N)cc1,1.3114,154.227,240.7014766,0.640739734
HIQMEZ,CN1C(=O)C(=O)N(CCc2ccccc2)C1=O,1.3499,182.932,285.5026343,0.640736645
DIRQOK,COC(=O)/C(=N/Nc1ccccc1C#N)C(C)=O,1.3397,194.643,303.784367,0.640727507
JODWEF,Cc1ccc2c(N)c(C(=O)[O-])n[n+](Cc3ccccc3)c2c1,1.336,233.437,364.3331873,0.640723953
CIQXUX,COC(=O)C1CC2Cn3c4c(c5ccccc53)CCNC(=O)C4(C2)C1=O,1.3925,269.066,419.9407649,0.640723698
LITTIS,O=C(Cc1ccccn1)N(c1ccccc1)c1ccccc1,1.2832,238.903,372.86664,0.640719695
PEXCUT,O=C1C=C(OCc2ccccc2)C=C/C1=C/NCCc1c[nH]c2ccccc12,1.3051,301.778,470.9993052,0.640718567
IYOSAS,CCOC(=O)c1ccnc(-c2nnn(CC(=O)OC)n2)c1,1.3942,222.149,346.7187416,0.640718177
UXOGUK,CCOC(=O)C1=C(C(=O)OCC)C(c2ccccc2)c2c(n(C)c(=O)n(C)c2=O)N1,1.3795,318.659,497.3478167,0.640716596
OFINEZ,COC(=O)c1ccc(-c2cc(-c3ccccc3)c3cccc(O)c3n2)cc1,1.3254,285.075,444.9326034,0.640715016
JESHOF,N#Cc1ccccc1OCC1CO1,1.2953,143.798,224.4346201,0.640712204
VECGIW,COc1cc2c(cc1OC)C(=O)CCCN(C#N)CC2,1.3152,221.766,346.1246743,0.640711329
EZESEI,COC(=O)C1=C(C(=O)OC)C2(OC3C=CC=CN13)C(=O)Oc1c(C)ccc(C)c12,1.3944,303.01,472.9281999,0.640710366
HALJIN,Cc1cc(=O)oc2cc3c(cc12)CCCN3,1.3477,169.808,265.0338653,0.640703028
CUGDAJ,COC(=O)N1C=CC2OC(c3ccccc3)=NOC2C1,1.3899,209.815,327.4787753,0.640698011
KIYNIR,COc1ccc(OC(=O)Nc2cccnc2)cc1,1.3485,192.578,300.5763485,0.640695786
REZLEQ,O=C(Nc1cccc2c1[nH]c1c(NC(=O)c3ccccc3)cccc12)c1ccccc1,1.3283,324.51,506.5032864,0.64068686
OFUZEX,CN1Cc2c(ccc3c2OCO3)C2(C)C(=O)c3cc4c(cc3C12)OCO4,1.4129,264.387,412.6650031,0.640681904
SUQBEL,CCN(C(C)=O)C12c3ccccc3C(c3ccccc31)c1ccccc12,1.2958,278.469,434.6449599,0.640681535
JESBER,COc1cccc(/C=N/c2ccc(/N=N/c3ccc(N(CCO)CCO)cc3)cc2)c1O,1.3284,347.747,542.7769422,0.640681232
WAQDOI,COc1nc(-c2ccc(C)cc2)c(C#N)c(N)c1C#N,1.3017,215.856,336.9181109,0.640677936
CABYOU,CCC(=O)N1CN(C(=O)CC)CC(O)(O)C1,1.3631,179.614,280.3523782,0.640672289
CEKTOB,CC(C)OC1OC(CO)C(O)C(O)C1[N-][N+]#N,1.4011,187.643,292.8857272,0.640669663
DIGVAR,c1ccc(OC2=NC3=NC(Oc4ccccc4)=NC4=NC(Oc5ccccc5)=NC(=N2)N34)cc1,1.4097,338.95,529.0591702,0.64066558
SIFKAW,CCOC(=O)c1cc(C(=O)c2cccc3oc(-c4ccc(OC)cc4)cc23)c[nH]1,1.3528,306.021,477.6634916,0.640662318
ASAWUM,CN1C(=O)CN2C(=O)C(N3C(=O)OCC3c3ccccc3)C2(c2ccccc2)c2ccccc21,1.3573,355.202,554.4332149,0.640657865
NUBJEZ,C[N+](=O)[N-]COC(=O)c1ccccc1,1.3497,152.97,238.772481,0.640651718
GEQXEI,COC12C=CC34C(C1)C(O)c1ccccc1N3C(=O)C(=O)N4C2C1CC1,1.3917,269.188,420.1821622,0.640645949
OKAPAU,COC(=O)c1nc(-c2ccccc2)[nH]c1-c1ccccc1,1.3163,224.768,350.8486206,0.640640968
XILQOY,c1ccc(Nc2ccc(Oc3ccc(Nc4ccccn4)cc3)cc2)nc1,1.3167,286.137,446.6456068,0.640635429
WEDPON,COC(=O)/C=C1\c2ccccc2-c2ccccc2N1c1ccc(O)cc1,1.3306,274.33,428.2177006,0.640632089
MAHVAV,O=C1C2C3C=CC(O3)C2C(=O)N1CCNCCNCCN1C(=O)C2C3C=CC(O3)C2C1=O,1.4017,335.588,523.8587432,0.640607806
JAFPAL,Cc1cc(=O)oc2cc3nc(-c4cccc5ccccc45)cc(-c4ccccc4)c3cc12,1.3178,333.508,520.6123127,0.640607208
WUCXUQ,COC(=O)Cn1cc(/N=N/c2ccc(OC)cc2)cn1,1.3491,216.138,337.3963411,0.640605643
FIMPID,CC(=O)Oc1cccc(C)c1C(=O)Nc1cccc2cccnc12,1.342,253.751,396.1138472,0.640601185
QUYGEZ,CCOC(=O)C1C(c2ccccc2)C2(OO)C(=O)N(c3ccccc3)N=C2CC1(C)O,1.36,331.767,517.9160314,0.640580673
GOXNIT,O=C(Nc1ccccn1)c1c2ccccc2cc2ccccc12,1.3384,236.933,369.876333,0.640573562
WUTNUV,COC(=O)C(C1=C([O-])OC(C)(C)OC1=O)C(C(=O)OC)n1cc[n+](C)c1,1.4007,279.562,436.4270265,0.640569862
WOGFEG,c1ccc(-c2cc(-c3ccccc3)c3c(n2)oc2ccccc23)cc1,1.3021,262.33,409.5262834,0.640569386
DMOCDO10,Cc1cc(=O)n2c(C)cc(=O)n12,1.3678,127.586,199.1780039,0.6405627
FEZWIT,Nc1n[nH]c(N)c1CC(O)c1ccccc1,1.3354,173.739,271.2331088,0.640552331
FOJLIZ,CC1(C)OC2/C(=N/O)C(O)COC2(CO)O1,1.4456,171.508,267.7567445,0.64053662
SINSEQ,COc1cccc(NC(=O)c2ccn(Cc3ccccn3)n2)n1,1.3535,242.925,379.2603972,0.640522981
WOMBIK,O=c1c2cccc3c(N(c4ccccc4)c4ccccc4)ccc(c32)c2nc3ccccc3n12,1.3307,349.422,545.5293906,0.640519111
YAPDEA,COC1C(C)OC2Oc3cc(/C=N/O)nc(-c4ccccn4)c3OC2(OC)C1O,1.4195,302.075,471.6103415,0.640518185
PASRUX,COC(=O)/C1=C/c2nc[nH]c2C(C)(C)/C=C\C2=Nc3ccccc3C23CC(=O)N13,1.3627,302.969,473.0078296,0.640515825
TUMMAS,CCOC(=O)N1C2=CC3OC2(c2ccccc21)C1CCC3C1=O,1.3954,237.145,370.2442509,0.640509608
OZIVOL,COc1cccc2c1C1c3ccccc3N(c3ncccn3)C1N(c1cccc3cccnc13)C2=O,1.3593,368.682,575.6081167,0.640508689
WIHBOF,COc1ccc(C(=O)N/N=C(\C)c2cc(C)ccc2O)cc1,1.3164,240.883,376.0844511,0.640502417
BUJMIC,CN1C2OC3(Cc4ccc5c(c42)OCO5)c2cc4c(cc2CC13)OCO4,1.4327,260.66,406.9619481,0.640502143
MOMJUV,CCN1C(=O)c2cccc3c(Oc4ccc5ccccc5c4)ccc(c23)C1=O,1.3476,289.755,452.3900806,0.640498129
GAWSED,COc1ccc(/C=N/NC(=O)c2ccncc2)cc1O,1.3468,214.092,334.2601017,0.640495228
NIWLEN,Cn1c2c(c3ccccc31)C(=O)C(C)(C)c1c-2oc2ccccc12,1.3275,252.482,394.1982052,0.640495052
OYAPIP02,Cc1ccc(-c2ccn[nH]2)c(O)c1,1.3122,141.1,220.2988166,0.640493681
YUYDOL,Cc1nn(-c2ccccc2)c(O)c1C(=O)c1ccccc1,1.32,224.082,349.8651812,0.640480997
JUWXOQ,C=CCn1c(=O)oc(=O)c2ccccc21,1.3634,158.404,247.3217827,0.64047735
SEVYIB,O=C(C#CC#CN(c1ccccc1)c1ccccc1)c1ccccc1,1.2513,272.938,426.1521407,0.640470794
YEFVUB,CC(=O)Oc1ccccc1N1C(=O)C2CC=CCC2C1=O,1.3582,223.253,348.576969,0.640469738
SAFRUM,COC(=O)CCc1cc(O)c2n(c1=O)C(C(=O)OC)CC2,1.3853,226.563,353.7517782,0.640457558
JOWSOF,O=C1C(=O)N(C2CCCC2)c2ccccc21,1.3363,171.191,267.2948742,0.640457474
RENBAP,CC(=O)Oc1cccc2c1c1c(n2-c2ccc(C)cc2)-c2ccccc2C1=O,1.3318,293.173,457.757075,0.640455421
NOXTEB,CCOC(=O)C1=C(C)Nc2nc3ccccc3n2C1c1cccnc1,1.3484,263.552,411.5083251,0.640453628
UPAGEY,CN1OC(c2cccc3ccccc23)C2(C#N)COc3ccccc3C12,1.3301,273.568,427.1501514,0.640449264
OZIHOX,COn1c2c(c3cc4ccccc4n3c1=O)C(=O)CC(C)(C)C2,1.354,243.598,380.3580291,0.640443954
FAPMUE,COc1ccc(C(C=C2C=CC=CC=C2)=C(C#N)C#N)cc1,1.2574,241.995,377.8553237,0.640443537
SUPYOR,c1ccc(-c2cc(Oc3cc(-c4ccccn4)nc(-c4ccccn4)c3)cc(-c3ccccn3)n2)nc1,1.3275,384.683,600.6554186,0.640438741
VENGAW10,CCOC(=O)/C(C#N)=C/c1ccc(/C=C/c2ccccn2)cc1,1.2724,254.194,396.9063405,0.640438244
VIYPEZ,Cc1nc(C(=O)OCc2ccccc2)c(C)nc1C(=O)OCc1ccccc1,1.3266,301.545,470.8441997,0.640434777
ZAQKIN01,CCOC(=O)/C(C#N)=C/c1ccco1,1.3142,154.611,241.4178349,0.640429072
DOKSIH,Cc1ccc(-c2cnc3cc(C(=O)c4ccccc4)ccc3n2)cc1,1.2927,266.652,416.3719909,0.640417717
MILVUY,O=C1NCCCCNC(=O)c2cccc(n2)C(=O)NCCCCNC(=O)c2cccc1n2,1.3548,343.972,537.1106433,0.640411812
KINHEU,Cc1cn(C2CCC(O)C(CO)O2)c(=O)[nH]c1=O,1.4179,192.084,299.9432212,0.640401204
GUSHIM,CC1=C(Cc2ccccc2)C(=O)NC1=O,1.3115,163.048,254.6029369,0.640401096
WEJBIW,NC(=O)C1=C(C(N)=O)C2C=CC1C2,1.3615,139.09,217.1943168,0.640394289
MARXUA,C/C(=N\O)c1cccc(/N=C/c2ccccc2OCCOc2ccccc2/C=N/c2cccc(/C(C)=N/O)c2)c1,1.3119,433.049,676.2229339,0.640393838
SEHNAX,C=C1CN2C(=O)C3(C(=O)OC)CCC(=O)C4C/C(=C\C(=O)OC)OC5=C4C3(C)C2CC15,1.3953,325.557,508.3831774,0.640377209
MEYQUE,COc1cccc2c3c(c(=O)[nH]c12)C(C)c1ccccc1-3,1.3284,221.831,346.4087089,0.640373623
ASAQUJ,COC(=O)C1C(=O)n2ccc3cccc(c32)-c2cc3ccccc3cc21,1.351,268.491,419.2740815,0.640371089
XEMVAP,COC(=O)C(O)(c1ccccc1)C1C(=O)N(Cc2ccccc2)c2ccccc21,1.3256,310.57,484.9852178,0.640370033
XIWDOW,O=C1COCC(=O)NCCOCCN1,1.3944,154.122,240.6766707,0.640369503
WATQIR,COC(=O)C1NC(C(=O)OC)C2C(=O)N(c3ccccc3)C(=O)C12,1.404,251.533,392.7967582,0.640364246
EHONUK01,CC(CO)(CO)N/C=C1\C(=O)C=Cc2ccccc21,1.3191,208.888,326.2042852,0.64035946
YIBGIZ,CC1(O)C(=O)/C(=N/O)C2CC1C2(C)C,1.3344,157.072,245.2884323,0.640356329
JOSBUO,O=C(Nc1ccn(C2OC(CO)C(O)C2OC2CCCCO2)c(=O)n1)c1ccccc1,1.4036,326.656,510.1165979,0.640355561
BIGMOT,COc1nn(-c2ccccc2)c(=O)[nH]1,1.3747,147.798,230.8067017,0.640354023
UMUGEO,O=C1c2cccc3cccc(c23)C(=O)N1CCC/N=C/c1ccccn1,1.332,273.931,427.7816267,0.64035242
KIYSOC,COc1ccc(C(=O)c2ccccc2-c2cc(-c3ccccc3)on2)cc1,1.3098,288.306,450.2318466,0.640350082
LUVNIZ,O=C(NNc1ccccn1)c1ccccn1,1.3386,170.065,265.5836818,0.640344312
VUNFEP,O=C(CC(O)C1=NOC2CCCC12)c1ccccc1,1.3278,207.514,324.0669323,0.640343026
POZCIR,COC(=O)c1ccccc1-c1nnn2c1COc1ccccc1-2,1.3749,237.509,370.9092334,0.640342646
NULMOY,O=c1cc(-c2ccccc2)cc(-c2ccccc2)[nH]1,1.2841,204.62,319.549712,0.640338552
EZACEN,Cc1cc(C(=O)c2ccccc2C)ccc1OCC(=O)NN,1.3117,241.684,377.432013,0.64033784
GEJQIX,CC(C)(C)C12N=NC(N)=C(C#N)C1C(C#N)C(=O)N2,1.3306,206.278,322.1395632,0.640337368
OGEJOA,CCOC(=O)C1=C(Nc2ccc(OCc3ccccc3)cc2)OCC1=O,1.3533,277.466,433.3123266,0.640337196
TIHKIF,COC(=O)C1(C2(O)C(=O)Nc3ccccc32)CC2(C(=O)Nc3ccccc32)N2CCCC21,1.3936,330.512,516.1536723,0.64033643
BOGHOW,COC(=O)c1c(C)nc(C)c(C(=O)OC)c1-c1cc(=O)oc2cc(OC)ccc12,1.3728,307.598,480.3693778,0.640336404
BASJOW,O=C1C2CC3CC2C2C3C(O)(c3ccccc3)c3ccccc3N12,1.3527,249.297,389.3289761,0.640324803
FAGRUA,COC(=O)c1ccnc(N(C)C(=O)n2ncc(C(=O)OC)c2C(=O)OC)c1C(=O)OC,1.4202,325.022,507.5895734,0.640324422
ZUVLEJ,CC(=O)Oc1cc2ccccc2cc1-c1ncnc2c1ncn2Cc1ccccc1,1.3386,313.087,488.954001,0.640319947
POFKON,COC(=O)/C(=C/N(C)C)Oc1cc2occ(C)c(=O)c2cc1OC,1.3598,260.488,406.8106536,0.640317548
SIXWIG,CC(=O)N(C(C)=O)c1cc(C#N)c2ccccn12,1.323,193.762,302.604657,0.640314005
VAZLAK,O=C(Cn1nc2ccccc2n1)c1ccccc1,1.3228,190.58,297.6353236,0.640313783
YEYGEP01,N#CCOc1ccccc1C#N,1.2631,133.048,207.7860266,0.640312548
NADLIQ,Cc1ccc(C2C(C#N)=C(N)N(Cc3ccccc3)C3=C2C(=O)N(C)C3=O)cc1,1.3171,310.133,484.3472888,0.640311213
GAWPIE,O=C(NC(CO)Cc1ccccc1)c1ccccc1,1.2959,209.333,326.9250075,0.640308924
WAFDIQ01,[O-]/[N+](=C\c1ccccc1)c1ccccc1,1.2703,164.966,257.6381931,0.640301029
HECRUD,Cn1nc2c3c(c1=O)CC1(C(=O)OC(C)(C)OC1=O)C(c1ccccc1)N3CCCO2,1.4262,316.969,495.0347168,0.640296507
UDEHES,COC(=O)C1=C([O-])C2(C(=O)OC)C3CC/C=C\CCC3ON2[N+]1=O,1.4151,254.049,396.7689862,0.640294501
ZATBIH01,O=C(Cc1c2n(c3ccccc13)CCc1ccccc1-2)c1ccccc1,1.2982,276.132,431.2630956,0.640286644
MAVJUQ,CCOC(=O)CNC(=O)n1[nH]c(N)c(-c2ccccc2)c1=O,1.3841,233.621,364.870275,0.640285099
REMKEA,O=C(Cn1cncn1)N1CCC(c2ccccc2)=N1,1.3453,201.623,314.9029985,0.640270182
WERRIU,OC(c1ccccc1)(c1ccccc1)c1ccncc1,1.2792,217.031,338.9682408,0.640269423
CELSEU,N#CC(C#N)C1CC/C(=C\c2ccccc2)C(=O)C1,1.2592,211.186,329.8393298,0.64026931
DUPGOL,COc1ccc(O)c(/C=N/c2ccc(C)cc2)c1,1.2892,198.847,310.5706864,0.64026326
HISDOD,O=C(CC(CC(=O)c1ccccn1)c1ccccn1)c1ccccn1,1.3129,268.159,418.8269683,0.640262018
KIJBAG,O=C(O)CCCCNC(=O)Cc1c[nH]c2ccccc12,1.3264,219.738,343.2020292,0.640258452
SOXJIZ,COc1ccc(-n2nc(-c3ccccc3)cc2N)cc1,1.3088,215.372,336.3850726,0.640254332
QOFYIV,CC(=O)c1ccc(OCc2cn(Cc3ccc(C#N)cc3)nn2)cc1,1.3096,269.639,421.1443472,0.640253162
DOFKUH,CCOC(=O)c1cc2c(c(=O)o1)c1ccccc1n2C(C)C,1.3443,236.569,369.4946275,0.640250175
RULJAL,C=CCN/C=C1/C=CC=C(O)C1=O,1.2903,145.912,227.8984359,0.640250116
MECPYZ,CCOC(=O)c1c(C)nn2nnn(C)c12,1.3844,160.579,250.8068264,0.640249718
FIMRIF,Cc1c(C(=O)c2ccccc2)c(=O)n(-c2ccccc2)n1C,1.2999,238.928,373.1798045,0.640249009
EVOFOL,Cc1c(/N=C/c2c3ccccc3cc3ccccc23)c(=O)n(-c2ccccc2)n1C,1.3026,319.272,498.6752253,0.640240348
YAXMUH01,Cc1ccc(C2=N/C(=C\c3ccccc3)C(=O)O2)cc1,1.3027,214.721,335.3764799,0.640238696
MANXUX,CCOC(=O)c1c(-c2ccccc2)[nH]c2ccccc12,1.2999,216.832,338.6738432,0.640238401
HEPXIM,Cc1cccc(C(=O)Nc2ccc(O)c3cccnc23)c1,1.3294,222.413,347.3913339,0.640237618
KOGHOF,CCCC1(c2cc3cccc(OC)c3oc2=O)NC(=O)c2ccccc2N1,1.3566,285.38,445.7428241,0.640234648
URAWUG,O=C(N/N=C/c1ccncc1)Nc1ccccc1,1.3189,193.547,302.3063955,0.640234553
XIBDET,COc1ccc(OC)c(C2=NOC3C4CC(C23)C2C(=O)N(C)C(=O)C42)c1,1.3935,271.714,424.4000505,0.640230838
HUKJEC,CCOC(=O)CNC(=O)c1nc[nH]c1C(=O)NCC(=O)OCC,1.3979,248.031,387.4091469,0.640230108
LIVSIT,c1cncc(C2NC(c3cccnc3)c3c(ccc4ccccc34)O2)c1,1.3271,271.686,424.3622722,0.640221852
HEYWIS,CCN1C/C(=C\c2cccnc2)C(=O)/C(=C/c2cccnc2)C1,1.2856,252.352,394.1636278,0.640221426
XAHHAS,O=C1CCCC2=C1C1(C(=O)c3ccccc3C1=O)C1=C(c3ccccc3C1=O)N2c1ccccc1,1.3579,357.9,559.0341088,0.640211383
YULMEA,CCCn1c(C)nc2c1C(=O)c1ccccc1C2=O,1.3288,203.301,317.5554179,0.640206366
MENHIW,Cc1cc(-c2cc(N)c(C#N)c3c2C(=C(C2CC2)C2CC2)C(=O)O3)c(C)o1,1.3133,291.542,455.3877713,0.640206036
UBIDOA,COC(=O)/C(C#N)=C(\C)N(C)C,1.2712,140.576,219.5799645,0.64020413
GEBNOQ,OC(c1ccccn1)(c1ccccn1)c1ccccn1,1.3156,212.61,332.1021545,0.640194582
XUBRAO,Cc1ccc(/C=N/OCCO/N=C/c2ccc(C)cc2)cc1,1.2672,248.453,388.0924911,0.640190175
RIWCOQ01,c1ccc(C2ON=C3c4c(ccc5ccccc45)OCC32)cc1,1.3379,239.263,373.7377448,0.640189553
TEQKOS,O=C1CCC2N(Cc3ccccc3)C1CC21C(=O)Nc2ccccc21,1.3264,266.217,415.8416803,0.640188352
ZEVRUN,CC(c1ccccc1)N1CN(C(=O)c2ccccc2)CC1=O,1.3042,239.759,374.5158842,0.640183795
MAQXAF,O=C(NN=C1CCCCC1)c1ccc(O)cc1,1.3209,186.816,291.8165098,0.640183107
LETJEZ,Cc1cn(C2CC(O)C3(CO)CC23)c(=O)[nH]c1=O,1.3792,194.327,303.5495492,0.64018214
GOCCUY,O=c1cccc(C(c2ccccc2)c2ccccc2)[nH]1,1.298,213.854,334.0586854,0.640168956
WAKVEN,CC(C)(C#N)CC(=O)C(=O)c1ccc(-c2ccccc2)cc1,1.2632,245,382.7135191,0.640165523
YEWBEK,COc1ccc2c(=O)[nH]c(-c3ccccc3)nc2c1,1.342,199.69,311.9377428,0.64015979
TOYLEB,O=C(c1ccccc1)c1cc(-c2ccccc2)[nH]n1,1.2958,203.53,317.9398792,0.640152473
QAHKUG,CC(C)c1ccc(C#N)c(=O)[nH]1,1.2726,135.388,211.4952908,0.640146641
ADODIH,Cn1c(=O)c2c(nc3n2CCCN3Cc2ccco2)n(C)c1=O,1.3921,240.635,375.9141522,0.640132856
ZOJGAG,O=C(c1ccccc1)N1CCN(C(=O)c2ccccc2)CCN(C(=O)c2ccccc2)CC1,1.3086,358.399,559.8849338,0.640129745
TIRVAT,CC(NC(=O)n1[nH]c(N)c(-c2ccccc2)c1=O)c1ccccc1,1.3348,256.545,400.7721198,0.640126863
KUJGUR,O=C1COc2ccccc2OCC(=O)NCCOCCOCCN1,1.3775,260.943,407.6429867,0.640126308
CUVLEN,O=C1C2=C(c3ccccc31)N1CCNC1CC2c1ccccc1,1.3302,241.448,377.18904,0.640124644
ODELUE,CC1=C2CCC(=O)CCC2C2C(=O)N(c3ccccc3)C(=O)C2C1,1.3257,259.113,404.7872441,0.640121456
CUPZUI,N/C(=N\C(=O)c1ccccc1)c1ccccc1N,1.3091,194.149,303.3070006,0.640107217
DIPYEG,COc1ccc2c(c1)C(=O)c1c(OC)c(OC)c(OC)c3c1C2=NCC3,1.3716,273.665,427.5310379,0.640105573
BUSTOZ,N#CC12C(=O)C34C5C1CCC1C2OC3(C2CC3C(c6ccccc6)(C2)C34C=O)C15,1.3771,295.748,462.0306801,0.640104679
MIWHOS,CCOC(=O)C1(CC(C)=O)Nc2ccccc2OC1OC(C)=O,1.3752,248.209,387.7646354,0.64010221
XAZYII,C=CCn1cc(COc2ccc(/C=N/c3ccc(OC)c(OC)c3)cc2)nn1,1.3169,305.242,476.8682191,0.640097175
ZIQQOH,CN1C(=O)C2(c3ccccc3)c3c(cccc31)-c1ccccc1C2c1ccc2c(c1)OCO2,1.3456,340.584,532.0832711,0.640095298
EVAMAS,COc1cc(C=O)ccc1Nc1ccccc1,1.297,186.112,290.7581653,0.640092084
REZSUN,COC(=O)C1=C(C(=O)OC)C2C1CCN2c1ccccc1,1.3381,228.074,356.3144965,0.640091835