name,smiles,Density,Vint,Veff,pc
DIGFOR,COc1ccc(/C=C/C(=O)c2nnn(-c3cccnc3)c2C)cc1,1.3151,258.435,404.2304289,0.639325943
HEKXIE,COc1nc(N)cc(=O)n1C,1.3792,119.367,186.7085069,0.639322771
SAWKAC,Cc1ccc(NC(C(=O)c2ccccc2)c2ccccc2)cc1,1.2608,253.581,396.6403479,0.639322251
URUVOV,COc1ccc2c([nH]c3c(C)nccc32)c1/C(C)=N\N,1.324,215.003,336.2996086,0.639319804
GODRAS,O=C1NC(=O)C(c2ccccc2)(c2ccncc2)N1,1.358,197.856,309.4795002,0.639318598
LETCEU,O=C(Oc1ccccc1)c1c2ccccc2nc2ccccc12,1.3211,240.356,375.9568089,0.639318119
NULGIN,CCOC(=O)C1(O)c2ccccc2-n2c(=O)c3ccccc3c(=O)n21,1.4028,255.868,400.2229148,0.639313719
SUHVUO,O=C(NN1CCc2ccccc2C1O)c1ccccc1,1.3287,214.231,335.0959794,0.639312356
GINPOJ,COC(=O)c1cc(-c2ccccc2)[nH]n1,1.3296,161.349,252.3800108,0.639309744
VASTEQ,CN(C)c1ccc(/C=C/C(=O)c2c(O)c3ccc(N(C)C)cc3oc2=O)cc1,1.3303,301.782,472.0507433,0.639299915
SADXIE,O=c1nc2n(Cc3ccccc3)c(=O)ccn2c(=O)n1Cc1ccccc1,1.3602,281.071,439.6551922,0.639298716
BZCPRO,O=C(O)C1CCCN1C(=O)C1CCCN1C(=O)OCc1ccccc1,1.3671,268.804,420.4677485,0.639297547
YEJRUA,CNC(=O)/C(C#N)=C/C#Cc1ccccc1,1.2429,179.437,280.6804306,0.639292877
SOXDAN,CN1C(=O)C2(OC(=O)N=C2c2ccccc2)c2ccccc21,1.361,227.831,356.3820764,0.639288604
UJEJOK,CCOC(=O)/C=C1\C(=O)Nc2ccccc2Oc2ccccc21,1.3461,243.772,381.3176133,0.639288592
LAPDIR,CC1=NN(C(=O)Nc2ccccn2)C(C)=NN1C(=O)Nc1ccccn1,1.384,270.11,422.5166589,0.639288403
QOHPUA,O=C(/C=C/c1ccccc1)CC1(O)C(=O)Nc2ccccc21,1.3246,234.907,367.4546913,0.639281538
VULTII,N/C(=N\c1nc(=O)c2ccccc2c(=O)[nH]1)N1CCCCC1,1.3709,231.645,362.3524226,0.639280947
ZOQBEP,C=C1c2ccccc2-c2nc3ccccc3c(=O)n2C1c1ccccc1,1.3107,272.241,425.8573836,0.639277398
UJIPOV,O=C(c1ccccc1)c1cc2ccc3c(c4ccccc4n3-c3ccccc3)c2o1,1.3254,310.067,485.031928,0.639271318
NEBPIW,COC(=O)C1=CC(C2CCCCC(=O)O2)C(C(=O)OC)=NN1,1.3925,236.417,369.8236533,0.639269549
EQOBAN,COc1ccc(/C=N/CCC/N=C/c2ccc(OC)cc2O)c(O)c1,1.3186,275.461,430.9020959,0.639265862
XOFYEW,CC1=C2C=CC=C2C2C(=O)NC(=O)C12,1.345,147.643,230.9571475,0.639265776
MAHTOH,O=C1C2C3C=CC(O3)C2C(=O)N1CCCCCCN1C(=O)C2C3C=CC(O3)C2C1=O,1.3953,313.58,490.5315004,0.639265775
WIRZUS,CC1(C)C(=O)NN(C2CC(O)C(O)CO2)C1=O,1.4189,182.628,285.6877112,0.639257458
OXOWUW,Cc1ccc2nc(-c3ccccc3)nc(C(=O)c3ccccc3)c2c1,1.2833,268.114,419.4218596,0.639246605
EYIGUP,COC(=O)C1(C(=O)OC)C(C(C)=O)=CN(C)c2ccccc21,1.3533,237.76,371.9393949,0.639243929
NUPSOH,Cc1nc2ccccc2nc1OCCN1CCOC1=O,1.3671,212.066,331.745076,0.639243851
RENJEB,CCOC(=O)c1c2c3c(ccc(C)c3c3ccccc13)N(Cc1ccccc1)C2=O,1.3206,317.632,496.8875128,0.639243273
JEYHED,COc1ccc(-c2cc(-c3ccccn3)nc(-c3ccccn3)c2)c(OC)c1,1.3136,298.309,466.6616285,0.639240473
LUDSIM,O=c1[nH]n(C2CC=CC2c2ccccc2)c(=O)n1-c1ccccc1,1.3308,254.557,398.2196624,0.639237647
COXZAS27,Cc1c(O)nn(-c2ccccc2)c(=O)c1C,1.3289,172.611,270.0269778,0.639236129
SIKMII,CCC1(c2ccncc2)CCC(=O)NC1=O,1.3197,175.434,274.4457371,0.639230188
PILLUS,CC1=C2C(=CNC(C)C2C)C(O)=C(C(=O)O)C1=O,1.382,191.332,299.316671,0.639229347
MUFFUQ,Cc1nnc(-c2ccccc2O)n1C,1.3146,152.684,238.8583645,0.639224003
BIPLIV,CC(=O)C(=CNc1ccccc1N)C(C)=O,1.2922,179.165,280.2863637,0.639221251
NEYNAI,O=C(Cn1nnc2ccccc21)c1ccccc1,1.3335,188.727,295.2470985,0.63921712
VUTBIW,C#Cn1ccnc1C#Cc1ccc(OC)cc1,1.2603,187.038,292.6167636,0.639190994
IQILAW02,O=C(CCCCCCC(=O)Nc1ccccc1)NO,1.2935,216.758,339.1133823,0.639190346
RILBOD,C[C@H]1CC(=O)NC(=C(C#N)C#N)[C@H]1C#N,1.2908,164.519,257.3876107,0.63918772
ENECEH,CC(=O)OCC(COC(C)=O)OCn1cnc2c(=O)[nH]c(N)nc21,1.4143,254.507,398.1751799,0.639183487
PICXOO,O=C1OCC(c2ccccc2)N2CC3C(=O)N(c4ccccc4)C(=O)C3C12,1.3687,280.827,439.3567083,0.639177677
DUCWAZ,[N-]=[N+]=CC(=O)c1ccccc1,1.2823,120.89,189.1346254,0.639174344
WEZBEJ,Nc1ccccc1NC(=O)C(O)C(O)C(O)C(O)C(O)CO,1.4088,238.175,372.6296002,0.639173592
XODZIB,Cc1nc2ccccc2c(=O)n1C,1.3115,140.883,220.4163989,0.639167506
PIDWUU,Cn1cc(-c2nc(-c3ccccc3)c(-c3ccccc3)o2)c(-c2cccc(OCC(=O)O)c2)n1,1.3371,358.126,560.3058964,0.639161576
CACROO,Nc1c(C=O)ncn1OCc1ccccc1,1.3472,171.03,267.5857787,0.639159528
TESKAF,COc1ccc2ccccc2c1/C=N/NC(=O)c1ccc(N(C)C)cc1,1.3086,281.578,440.5467704,0.639155747
MEPWUA02,COc1cccc(/C=N/c2ccccc2/N=C/c2cccc(OC)c2O)c1O,1.3447,296.892,464.5065183,0.639155724
ICAMEE,O=C(O)c1cccc2c1nnn2Cc1ccccc1,1.3525,198.607,310.7380119,0.639146137
YAFFIX,COC(=O)c1c(-c2ccccc2)[nH]c(-c2cccc3ccccc23)c1-c1ccccc1,1.299,329.404,515.3832904,0.639143733
SOJCEZ,COc1cc(C2(O)C(=[N+]=[N-])C(=O)c3ccccc32)c(OC)c2ccccc12,1.3503,283.053,442.8647991,0.639140886
ETIVEI,O=C(Nc1ccccc1)c1ccco1,1.3162,150.844,236.0107609,0.639140349
CUMTUZ,O=NN1CC2(c3ccccc3)CN(N=O)CC(c3ccccc3)(C1)C2=O,1.3683,271.591,424.9353072,0.639134935
ZOKVOK,Cn1c2c(c3ccccc31)C(=O)CCC2,1.2954,163.126,255.2300333,0.639133247
UFIWOW,C=C(c1ccccc1)c1nn(C(C)=O)nc1-c1ccccc1,1.2881,238.224,372.7312965,0.639130661
KIVHUS,COC(=O)CC1OC(=O)c2c(C)ccnc21,1.3761,170.503,266.7733903,0.639130461
XEJKOM,C=Cc1ccccc1C(=O)c1cccc2c1CCC(C#N)(C#N)C2(C#N)C#N,1.2735,301.788,472.1877451,0.639127133
NOMLAC,Cc1cn(C23CC([N-][N+]#N)C(CO)C2C3)c(=O)[nH]c1=O,1.3871,212.033,331.7578421,0.639119783
ZUWXIA,CN1C(=O)C2(C)CN=C(c3ccccc3)C2([N-][N+]#N)c2ccccc21,1.3254,265.164,414.8910372,0.639117205
VUXQEN,CCOC(=O)c1c(-c2ccccc2)[n-]cc(C(=O)c2ccccc2)[n+]1=O,1.3369,276.351,432.3981886,0.639112298
AMOCAJ,O=c1nc2c3ccccc3c(-c3ccccc3)c(-c3ccccc3)n2c2ccccc12,1.3098,322.607,504.7751267,0.639110334
USOMEV,COC(=O)c1nc(Nc2ccccc2)nn1COCCOC(C)=O,1.3746,257.973,403.646509,0.639106233
XIJVAP,CC(=O)C1C(c2ccco2)c2c(C)[nH]c3nn(-c4ccccc4)c(=O)c-3c2CC1(C)O,1.3552,326.695,511.1796064,0.639100222
CACZEO,COc1ccc(C2C/C(=C3/C(=O)C=C(C)OC3=O)Nc3ccccc3N2)cc1OC,1.3661,315.527,493.7101668,0.639093584
PEHHAN,COc1ccc(/C=N/c2ccc(Oc3ccc(/N=C/c4ccc(OC)cc4)cc3)cc2)cc1,1.2963,357.094,558.7582636,0.639084956
JEGBOP,COC(=O)c1c(C(=O)C(=O)Nc2ccccc2)c(-c2ccc(OC)cc2)nc2onc(C)c12,1.3676,345.418,540.4932262,0.63907924
ISIBAQ,COc1ccc(N2C3Cc4c([nH]c5ccccc45)C2CCC3=O)cc1,1.3357,263.905,412.9463239,0.639078216
UMUSAX,O=c1ccc2cccc3c2n1Cc1cc2ccccc2cc1CO3,1.3489,246.339,385.4629171,0.639073148
PMPAIN,COc1ccc(Nc2c(-c3ccccc3)[nH]c3ccccc23)cc1,1.2949,257.452,402.8604997,0.639059923
JEBVEU,Oc1ccccc1-c1nc(-c2ccccc2)c(-c2ccccc2)c2ccccc12,1.2828,308.692,483.0428364,0.639057195
CEDGUN,CCOC(=O)C(=O)Nc1[nH]c(C)c(C)c1C#N,1.3284,187.81,293.8873117,0.639054469
OCEKUE,Cc1noc(/N=C/c2c3ccccc3cc3ccccc23)c1C,1.2953,245.887,384.7677546,0.639053031
RIHMON,Oc1cccc(CNCc2ccco2)c1,1.3026,165.457,258.9121298,0.639046923
XAZDIN01,CCOC(=O)c1c(-c2ccccc2)cc2n1CCc1ccccc1-2,1.3137,256.185,400.887041,0.639045351
XIQXEB,C/C(=N\OCCCCO/N=C(\C)c1ccccc1O)c1ccccc1O,1.3054,289.544,453.0886259,0.639044954
RONZEB,CC(=O)n1c2ccccc2oc2cccc3nc(-c4ccccc4)c1n32,1.3529,267.566,418.6990451,0.639041343
HABFUP,Cc1ccc(-n2nc(C)c(-c3coc4ccc(C)cc4c3=O)c2O)cc1,1.3364,274.85,430.1005474,0.63903662
AXABAD,CN(C)c1ccc(/C=C2\Cc3ccccc3C2=O)cc1,1.2638,220.945,345.7472401,0.639036193
VONQUL,CC(c1ccccc1)n1cnc2ccccc2c1=O,1.2958,204.824,320.522985,0.639030614
LIMLUO,CCc1cc(=O)n(C)c(=O)n1C,1.3216,134.964,211.2061522,0.639015476
THFOLA,COc1cc2c(cc1O)C(=O)N(C)CC2,1.3518,162.563,254.3962832,0.639014839
QEQKEC,O=C(Cn1ccccc1=O)Cn1ccccc1=O,1.3503,191.816,300.1756692,0.639012484
KEKTOL,COc1ccc(C(=O)c2c3c(c4ccccn24)-c2nc4ccccc4n2C(C)(C)N3)cc1,1.3448,333.125,521.3136545,0.639010694
EGARIQ,CC1=C/C(=C/Nc2ccc(C)cc2O)C(=O)C=C1,1.2904,198.272,310.281873,0.639006069
FOVSUF,Cc1ccc(N)cc1Oc1nccc(-c2cccnc2)n1,1.3224,223.168,349.2443236,0.639002512
FUXSOH,COC(=O)c1nn2c(c1C(=O)OC)C(C)(O)C(c1ccccc1)=N2,1.3887,251.471,393.5374119,0.639001509
FIXTIP,O=C1CC(=O)c2ccccc2N(c2ccccc2)c2ccccc21,1.3138,252.891,395.7610968,0.638999139
FASCIO,CCOC(=O)c1cnn2c3ccccc3c(=O)n(Cc3ccccc3)c12,1.3615,270.541,423.385297,0.638994792
QAPRUW,c1ccc(N(c2ccccc2)c2ccc(-c3nnc(-c4ccc(-c5ccccn5)cc4)o3)cc2)cc1,1.3084,378.072,591.6672633,0.638994285
KOMSUB01,O=Cc1ccc(N(c2ccccc2)c2ccccc2)cc1,1.2627,229.513,359.1790399,0.6389933
FABDUJ,O=C(Nc1ccncc1)Nc1c2ccccc2cc2ccccc12,1.3215,251.423,393.4692267,0.638990251
XESYUS,CN1C=C2C(=O)N(c3ccccc3)N=C2CC1,1.3339,180.66,282.7288361,0.63898682
KUXMIZ,O=C1C2C=COC2CC2C3Nc4ccccc4C3CCN12,1.3576,220.518,345.1063762,0.638985586
THOPAD10,Nc1ncnc2c1ncn2C1OC(CO)C(O)C1OC1CCCCO1,1.426,261.297,408.9248098,0.638985441
XAVGAF,CCN1C(=O)C2C3c4ccc(N)cc4C(c4ccc(N)cc43)C2C1=O,1.3588,260.158,407.1424163,0.638985253
BACQAY,COC(=O)C12C3CC(c4ccccc43)C1(C#N)C1(C#N)C3CC(c4ccccc43)C12C(=O)OC,1.3531,353.011,552.4590227,0.638981328
QEVZID,Oc1ccc2ccccc2c1/C=N/c1ccc(Oc2ccccc2)cc1,1.305,275.739,431.5344961,0.638973251
LINPED,CCOCc1cn(Cc2cn(CC)c(=O)[nH]c2=O)c(=O)[nH]c1=O,1.3934,245.3,383.8993048,0.638969638
TEVBON,CC(C)c1ccc2c(c1)C(=O)C1=C(c3ccc[nH]3)c3cccn3C1O2,1.3296,263.462,412.3234178,0.638969286
WOVBIU,Oc1ccccc1/C=N/c1ccc(/C=C/c2c3ccccc3cc3ccccc23)cc1,1.2795,331.02,518.0530982,0.638969251
NASYEO,CN1CC(C(OC(=O)c2ccccc2)c2ccccc2)NC1=O,1.3303,247.366,387.1343092,0.638966876
LADMIO,COc1cc(OC)c2c(=O)c(C(=O)c3ccccc3Cc3ccccc3)cn(C)c2c1,1.3148,333.427,521.8268887,0.638960941
IYUPIE,CC1=NN(c2ccccc2)C(=O)C12CC=C1C(=O)Oc3ccccc3C12,1.3537,269.725,422.1313311,0.638959916
DUGLUP,COC(=O)C1=CC(C(=O)OC)C2N(C(=O)OC(C)(C)C)CCC23c2ccccc2NC13,1.3583,334.49,523.4927332,0.638958249
BEGRUA,CCCOc1ccccc1-c1nc2[nH]nnc2c(=O)[nH]1,1.3814,208.235,325.9013748,0.638950971
DOSKUR,COC(=O)C1(c2ccccc2)CC2COc3ccc4ccccc4c3C2N1,1.3345,285.556,446.9149865,0.63894926
GIHHIQ,O=C(CC1(c2ccc3c(c2)OCO3)C(=O)Nc2ccccc21)c1ccccc1,1.3568,290.218,454.2119897,0.638948347
JUNTOE,CC(=O)/C(=N\Nc1ccc(O)cc1)C(=O)c1ccccc1,1.3251,225.884,353.5250128,0.638947717
MOPHEF,O=C1CCC(c2ccccc2)c2ccccc2C2CCCN12,1.281,241.166,377.4427316,0.638947262
XEBPOL,COC(=O)/C(=C/c1ccccc1)CN1C(=O)c2ccccc2C1=O,1.332,255.779,400.3144439,0.638945219
WOYNOP,Nc1ccccc1-c1nc2ccccc2o1,1.3269,167.986,262.9118299,0.638944243
FOBKEM,CN1C(=O)C(O)C(c2ccccc2)C1C(O)c1ccccc1,1.314,239.932,375.5135929,0.638943582
JAZCOC02,CC(C)C1(C)N=C(c2ncccc2C(=O)O)NC1=O,1.3537,204.657,320.3084091,0.638937331
NIGKUJ,CC(=O)OCC1OC2(COC(C)=O)C(OC(=O)N2C(C)=O)C1OC(C)=O,1.441,274.716,429.9592974,0.638934898
HUWRIB,COc1cc(N)c(C(C)=O)cc1OC,1.3262,156.079,244.2811759,0.638931753
DISPAZ,Cc1c(/N=N/c2c(O)ccc3ccccc23)c(=O)n(-c2ccccc2)n1C,1.3344,284.767,445.6926151,0.638931385
PINWEQ,Oc1c(/C=N/c2ccccc2)cccc1-c1cccc(/C=N/c2ccccc2)c1O,1.2993,320.232,501.1994187,0.638931308
OXUCUG,CN(C)c1ccc2c(c1)oc(=O)c1cc3c(cc12)-c1ccccc1N(C)C3,1.3326,283.562,443.8142015,0.638920519
MEGROF,Cc1ccc2cccnc2c1N1C(=O)CC(c2ccccc2)(c2ccccc2)C1=O,1.3095,317.731,497.29546,0.638917958
CIQDUB,CC1=NN(c2ccccc2)C(=O)/C1=C(O)/C=C/c1ccccc1,1.3047,247.311,387.0802696,0.638913991
IJOYEM,O=C(O)CCC(=O)Nc1ccccc1,1.3322,153.766,240.6684484,0.638912167
JUBKOG01,Oc1ccccc1/N=C/c1ccccn1,1.2961,162.144,253.7848214,0.638903458
XEZFIS01,COc1ccc(-c2cc(-c3ccccn3)nc(-c3ccccn3)c2)cc1,1.3058,275.547,431.2844016,0.638898599
EDELIJ,Cc1c(-c2nnco2)ncn1Cc1ccccc1,1.328,191.819,300.2348682,0.638896479
MAZXBZ,CN(C)c1ccc([N+](=O)[N-]c2ccccc2)cc1,1.2893,198.416,310.5610665,0.638895282
QEWFAB,O=C1c2cccc3c(N4CCCCC4)ccc(c23)C(=O)N1/N=C/c1ccccc1O,1.3503,313.624,490.8851803,0.638894822
POMXOF01,O=C(N/N=C/c1ccccc1O)c1cccnc1-c1ncccc1C(=O)N/N=C/c1ccccc1O,1.3524,376.678,589.5775909,0.638894703
MQUCXA10,Cc1cc(C(N)=O)nc2ccccc12,1.3043,151.361,236.9112222,0.638893332
KUTPUL,COC(=O)C12COc3ccc4ccccc4c3C1N(C)CC2c1ccc(OC)cc1,1.337,319.932,500.7613926,0.638891106
WACFUB,Cc1c2oc(C(=O)c3ccccc3)cc2n2ccccc12,1.3171,221.592,346.8393746,0.6388894
PEYPAL,COc1ccccc1C(=O)n1c(=O)cnn(C2CC(O)C(CO)O2)c1=O,1.4322,268.979,421.0130588,0.638885171
IPUZOJ,CC(C)=CCc1c2[nH]c3ccccc3nc-2c2ccccc2c1=O,1.2956,257.241,402.6428381,0.63888135
VUNSOO,CC(=O)c1c(C)n(Cc2ccccc2)c2c1c(C#N)c(O)c1ccccc12,1.3078,287.286,449.6709102,0.638880554
QUBMOR,O=C1C2C3C=CC(C3)C2C(=O)N1c1ccccn1,1.3614,187.099,292.8553334,0.638878582
QIWLIU,CCOC(=O)C1N(c2ccc(OC)cc2)N=C(C(C)=O)C1(C)O,1.3451,252.501,395.2270244,0.638875847
CIQWEH,CN(C)CCCNC1=CC(=O)c2ccccc2C1=O,1.2907,212.179,332.1159187,0.63887031
PAVVIR,O=C1/C(=C/c2cccnc2)CCCc2ccccc21,1.2762,207.09,324.1505827,0.638869745
QIMNUY,COc1cccc(/C=N/c2ccc(/C(C)=N/O)cc2)c1O,1.312,229.739,359.6060846,0.638862939
CURLUZ,C#CCOCc1cc(-c2ccccn2)nnc1-c1ccccn1,1.2925,247.978,388.1586797,0.638857284
GEFGEG,O=C1CC2CC3CC14C(O)CCN1CCCC24C1(O)C3,1.3859,212.166,332.1053741,0.638851451
USEBUQ,O=C1C=Cc2ccccc2/C1=C/Nc1ccccc1-c1ccccc1,1.2826,267.271,418.3622034,0.638850732
EGIGEJ,NC(=O)CCC(=O)C(O)(c1ccccc1)c1ccccc1,1.3023,230.635,361.01549,0.638850704
KATDUF,COc1ccc(/C=N/N=C/c2ccc(OC)c(O)c2)cc1O,1.3377,238.001,372.5531422,0.63883772
BASJIQ,CC1(O)c2ccccc2N2C(=O)C3CC4CC3C2C41,1.3615,198.789,311.1730571,0.638837442
ARABUQ,CCC1=NCC(C(=O)OC)=Cc2cc3c(cc21)OCO3,1.3572,213.468,334.1512225,0.638836507
ZOMCEM,CC(=O)C1=NOC(COc2ccc3c(C)cc(=O)oc3c2)C1,1.3674,233.594,365.656278,0.638834923
BECCOB,CCc1c(CN2C(=O)c3ccccc3C2=O)[nH]c(C(=O)OCc2ccccc2)c1C,1.3234,322.372,504.6270997,0.63883212
WETREV,O=C1Nc2ccccc2CN1C(=O)c1ccccc1,1.3425,199.201,311.8215649,0.638830095
BOGXUQ,CC(=O)N1c2ccccc2-c2ccccc2N1C(C)=O,1.3211,213.682,334.4900759,0.638829117
CIYPUV,Cc1c2c(oc3ccccc32)c(-c2ccccc2)n1Cc1ccccc1,1.2859,278.138,435.38825,0.638827529
NAPMEX,COc1cc2c(C)nc3oc(-c4ccccc4)cc3c2cc1OC,1.3299,254.556,398.4751279,0.638825317
DOXPOV,COc1nc(=O)n(C2CC(O)C(CO)O2)cc1C,1.4069,193.109,302.2883599,0.638823804
NINJEZ,COC(=O)C1CC(=O)C=CN1C(=O)c1ccccc1,1.3472,204.011,319.3554416,0.638821117
LERGUM,CCOC(=O)CNc1nc(N)nc(N(C)c2ccccc2)c1C=O,1.3514,258.376,404.4579546,0.638820419
GAKYEX,CCCNC(C)=C1C(=O)N(C)C(=O)N(C)C1=O,1.3395,189.378,296.4496318,0.638820156
VECCEL,Cc1cccc(NC(=O)c2ccccc2C(=O)O)c1,1.3197,205.05,320.9833263,0.638818229
IPUNUE,O=C1C(c2ccccc2)=CC(O)(c2ccccc2)N1OCc1ccccc1,1.3097,289.266,452.8219143,0.638807423
SUHNIV,O=C(NC(=O)c1cccc(C(=O)NC(=O)Nc2ccccc2)n1)Nc1ccccc1,1.3647,313.358,490.5359761,0.638807377
PEGBUY,CC12CCC3OC4(CC(=O)CCC41C#N)OC32CO,1.3928,200.395,313.7062233,0.638798293
ACUHOV,CC(C)(C)OC(=O)Nc1ncnc2c1ncn2CC(=O)NCCN1C(=O)C2C3C=CC(C3)C2C1=O,1.393,366.44,573.6489257,0.638787913
PEDRAT,c1ccc(-c2ccc(-c3nnc(-c4ccccc4)o3)cc2)cc1,1.297,243.814,381.6827171,0.638787111
JAXKEZ,NC(=O)NCCCCNC(N)=O,1.348,137.012,214.4880184,0.638786265
GOFTUR,COc1ccc(O)c(/C=N/c2ccccc2)c1,1.2986,185.503,290.3999232,0.638784604
WEPDEB02,O=C(Nc1ccccc1C(=O)N/N=C/c1ccccc1O)c1ccccc1,1.3264,287.204,449.6126975,0.638780892
VACDAG,CCOC(=O)c1oc2ccccc2c1/N=C(\Nc1cccc(C)c1)n1cncn1,1.3536,304.956,477.4087469,0.638773382
HIKGAJ,CC12CCC(=O)N1CCCC21C=CC(=O)O1,1.3589,172.593,270.1944839,0.638773218
JOGYUB,COc1ccc(-c2cc3c(o2)CC(C#N)(C#N)C(C#N)(C#N)C3c2ccc(OC)cc2)cc1,1.3104,351.427,550.1597839,0.638772608
MDAPOT,Cn1c(=O)n2n(c1=O)C1C=CC2C23C=CC=CC12OCO3,1.4483,210.267,329.1739696,0.638771651
OSIHIJ,O=C1OCCCN1Cc1ccc(CN2CCCOC2=O)cc1,1.3628,236.729,370.6036948,0.638765893
IPEBUD,COC(=O)c1ccccc1-c1ccccc1-c1nc2ccccc2n2c1c(C)c1ccccc12,1.3281,353.153,552.868303,0.638765142
LUXTOQ,CCN(CC)c1ccc2cc(-n3cc(COc4cccc5cccnc45)nn3)c(=O)oc2c1,1.346,347.674,544.2969218,0.638757976
QEVPEM,Cc1ccc(-c2cc(=O)nc(/N=C/N(C)C)o2)cc1,1.3139,207.572,324.9619744,0.638757813
EHAZIW,O=C(OCC1=CCOC1N1C(=O)CCC1O)c1ccc[nH]1,1.3853,223.664,350.1559903,0.638755315
WURZER,C/C(=C\c1cnn(-c2ccccc2)n1)C(=O)c1ccccc1,1.29,237.733,372.1823124,0.638754159
ODORAA,COC(Nc1ccccc1)=C1C(=O)OC(C)(C)OC1=O,1.3737,213.961,334.9668737,0.638752715
ZIBYOB,CCn1c2ccccc2c2cc(N3C(=O)c4ccccc4C3=O)ccc21,1.3271,271.847,425.5935709,0.638747901
SELZOY,COc1cc2c(cc1OC)C1CC=CCC13CCC(=O)N3C(O)C2,1.3523,258.183,404.2058665,0.638741348
YAGKEX,COC(=O)Cc1ccccc1OCc1nc(-c2ccccc2)no1,1.3417,256.229,401.1468572,0.638741138
KAMNUH,COC(=O)C1=CNC(C(=O)OC)C2CC1Oc1ccccc12,1.3731,234.147,366.5760564,0.638740572
VOTJUL,O=C1CC2OC3C(CC(=O)N3Cc3ccccc3)OC2N1Cc1ccccc1,1.3611,294.694,461.368822,0.638738436
UPORIC,COC(=O)c1nn(-c2ccccc2)c(C(=O)Nc2ccc(OC)cc2)c1C(=O)c1ccccc1,1.3455,358.801,561.7383645,0.638733301
EMAQEQ,C#CCO/N=C/c1ccc(OCC#C)c(OC)c1,1.2645,203.906,319.2364536,0.638730313
FIXYUG,CN1C(=O)C2OC=CC2c2ccccc21,1.3449,158.583,248.2799851,0.638726476
BUGDEO,COC1=CC=CC(=O)/C1=C\Nc1ccc(O)cc1C,1.322,206.28,322.9567957,0.638723206
VOVTEH,O=c1oc2c3c(n(Cc4ccccc4)c2c2ccccc12)CCCC3O,1.3514,270.883,424.1036415,0.638718873
GEHKIN,COC(=O)c1cccc(NC(=O)c2cccc(C)c2O)c1,1.3385,225.919,353.7073136,0.638717356
BEHDUO,CN(C(=O)c1c(O)c2ccccc2n(C)c1=O)c1ccccc1,1.3351,244.778,383.2354004,0.638714481
SAHGIT,C=CCN1C(=O)C(O)C(c2ccccc2)Nc2ccccc21,1.3041,239.227,374.5446026,0.638714317
CELKIO,CCOC1=CC=C/C(=C/NC(CO)(CO)CO)C1=O,1.3468,211.945,331.8318766,0.638711995
ZIMLAL,CO/N=C1/c2ccccc2C(C)(O)n2nc3ccccc3c21,1.3459,230.992,361.6532715,0.638711214
BUHLIA,CN1CCN(C)C1=C1C(=O)ON=C1c1ccccc1,1.3323,204.69,320.4740211,0.638710119
YIZDOB,NC(=O)c1nc(C#Cc2ccccc2)n(COCCO)n1,1.3431,225.936,353.7403051,0.638705844
OBUMUV,CC1(O)C(=O)c2ccccc2N1c1ccccc1,1.3157,192.743,301.7713311,0.63870547
WASJUW,COC(=O)C(C(=O)OC)c1c(OC)n(C(=O)OC)c2ccccc12,1.3843,256.748,401.9850418,0.638700383
NEKXIN,O=CN1CC2CC(C1)c1cccc(=O)n1C2,1.363,169.72,265.7271014,0.638700377
FUMTAK,O=C1CCC23OC=CC2C2(O)CCCc4c(-c5cccnc5)ccc(c42)N13,1.3696,278.9,436.6681951,0.638700055
MANMOG,CN1C(=O)C2C(=O)Oc3ccccc3C2C2(CCCCC2)C1=O,1.3699,242.436,379.5795433,0.638696169
BMALIX10,CN(Cc1ccccc1)CC1(O)OCC(O)C(O)C1O,1.3575,221.219,346.3613702,0.638694205
XORMIC,CN1C(=O)C(O)(C(O)c2ccccc2)c2ccccc21,1.335,213.792,334.7386398,0.638683363
DUWYOL,CCOC(=O)c1cc(C(=O)c2ccccc2O)c[nH]1,1.3517,203.287,318.2922622,0.638680308
BEBKOK,C=Cn1ccnc1-c1nc(C)c(C(=O)OCC)o1,1.3434,195.078,305.4392624,0.63868017
VIZTAA,CNC(=O)C1C(O)C(C(=O)NC)C2C(C(=O)NC)C(O)C(C(=O)NC)C12,1.3773,285.059,446.3294855,0.638673915
QUWPEG,C/C=C1\C(C(=O)OCC)=C(c2ccccc2)CC1(C#N)C(N)=O,1.2919,254.601,398.6413588,0.638671815
QASXOY,CCC12NC=CC(=O)C1(O)OC(C)=C2C(C)=O,1.354,185.718,290.7890984,0.638669059
HIMSIH,C=C=C(C(=O)OC)c1ccccc1C#N,1.264,167.025,261.5225975,0.638663739
SANSUX,COC(=O)C1=C(C(=O)OC)C2(C(=O)Nc3ccccc32)C(C#N)=C(N)N1c1ccc(OC)cc1,1.3831,352.835,552.458705,0.63866312
WALMII,CCOC(=O)/C(C#N)=C\Nc1cnc2ccccc2c1,1.3123,215.863,337.9924939,0.638662112
NAWZER,COC(=O)/C(Cc1ccc(OC)c(OCc2ccc(OC)cc2)c1)=N/O,1.3424,283.735,444.2660275,0.638660133
BOYDIF,O=C1C(O)=CC=C/C1=C/NCCO,1.3376,143.569,224.7991231,0.638654626
EGISOE,CCOC(=O)/C(C#N)=N/OC(=O)c1ccc2ccccc2c1,1.3375,234.769,367.6037093,0.638646983
UHUYIH,CC1C(=O)N2C(CC(C)(C#N)C2c2ccccc2)C(=O)N1C,1.3058,241.335,377.8859819,0.638645019
HIVSUB,CCOC(=O)c1c[nH]nc1N,1.3691,120.119,188.0858759,0.638639129
LAQRIG,Cc1ccc(/C=C(\C#N)COc2ccccc2/C=N/O)cc1,1.2742,243.134,380.7066613,0.638638681
AWEKUJ,O=c1c2ccccc2nnn1CCCCCCn1nnc2ccccc2c1=O,1.347,296.162,463.7410717,0.638636554
HUFQAB,COc1ccc(-c2ccnc3c(OC)cccc23)cc1,1.2982,216.57,339.1173385,0.638628508
SUVPEG,CC(=O)OC12NC1(C#N)C(C(C)C)c1c(c3ccccc3oc1=O)O2,1.3752,262.277,410.6892769,0.638626365
ACNORT,COc1cc2c3c(c1OC)-c1cc4c(cc1CC3N(C(C)=O)CC2OC(C)=O)OCO4,1.3979,322.533,505.0431783,0.638624605
MACBIC,CCCCNc1nc(N)nc(OCc2cccnc2)c1N=O,1.3466,237.954,372.6042143,0.638624017
HIVTEM,CCOC(=O)c1cn[nH]c1NC(C)=O,1.3783,151.638,237.4454882,0.638622368
JUKZUK,CC1(C)CC(=O)c2cc(NC(=O)c3ccccc3)c(=O)oc2C1,1.3417,245.909,385.0628515,0.63862042
UVIYEF,CCOC(=O)C1(C(=O)OCC)C(c2ccc(C)cc2)=NN2CCOCC21,1.343,284.403,445.3431478,0.638615417
OQOLIR,OCC1OC(OCc2ccccc2)/C(=N\O)C(O)C1O,1.395,215.216,337.0072675,0.638609374
QUYGID,CCOC(=O)C1C(C)=CC2=NN(c3ccccc3)C(=O)C2C1c1ccccc1,1.3061,303.797,475.7178994,0.638607461
LANFUD,COc1ccc(C(=O)N/N=C/c2cc(OC)c(OC)c(OC)c2)cc1,1.3311,274.167,429.3248218,0.638600393
UWADEE,C#CCOc1ccc(O)c(/C=N/c2ccc(/N=N/c3ccc(N(CCO)CCO)cc3)cc2)c1,1.3125,370.205,579.7175543,0.638595463
ZEHJOL,CC(=O)Nc1ccc(/C(C)=N/N=C(\C)c2ccc(NC(C)=O)cc2)cc1,1.2913,287.567,450.320919,0.638582371
DECKUR,CN1C=C(C(N)=O)C(=O)N2CCCCC12,1.358,163.294,255.7133566,0.638582209
LEGSIC,CC1C2COC3(C)C=CC(=O)C(c4c2n(-c2ncccn2)c2ccccc42)C13,1.3552,290.431,454.8065996,0.638581323
YAHWEM,CN1C(=O)C2(Nc3ccccc3C2=O)c2ccccc21,1.3503,207.396,324.7779387,0.638577856
VUBDUU,Cc1cc(=O)oc2c(-c3nc4ccccc4n3C(c3ccccc3)c3ccccn3)c(O)ccc12,1.3398,363.412,569.0985662,0.638574795
GOJSEG,c1ccc(-c2c3c(cc4c2ncc2ccccc24)COC3)cc1,1.3123,240.087,375.9733091,0.638574585
RENJOL,CCOC(=O)c1c2c3c(cccc3c3c(OC)cccc13)N(C)C2=O,1.3526,262.724,411.424832,0.638571082