name,smiles,Density,Vint,Veff,pc
ZURBOG,O=C(/C=C1\Nc2ccccc2N(c2ccccc2)C1=O)/C=C/c1ccccc1,1.302,296.802,466.9791216,0.635578736
YETSOI,CO/C=C(/C(=O)OC)C1C(=O)N(C)c2ccccc21,1.3276,207.573,326.5914729,0.635573851
ECUMOF,CC(=O)NNC(=O)c1cc2ccccc2cc1O,1.3496,190.882,300.3313619,0.63557132
POPJEK,Cc1c(C(=O)O)nnn1-c1cccc2ccccc12,1.3444,198.686,312.6102063,0.63557106
GAVXEI,COC(=O)C1=CN(C)C=C/C1=C(\C#N)c1ccccc1,1.2834,218.837,344.3157544,0.635570685
LAWYOY02,O=C(C#Cc1ccc(-c2ccccc2)[nH]1)c1ccccc1,1.2608,226.94,357.0655021,0.635569661
ROBROS,COC(=O)C(C(=O)OC)c1c(-c2ccccc2)c2ccccc2n1C,1.3141,270.769,426.0257334,0.635569588
XEBJAP,O=C1CCC(=O)N1c1cn(-c2ccccc2)cn1,1.3442,189.293,297.8321389,0.635569421
AZAQUN,COc1c2c(cc3c1C(C#CCO)N(C)CC3)OCO2,1.3506,214.989,338.2624224,0.635568676
DIVNAX,c1ccc(C2=NOC3C2C2C4C3C24)cc1,1.3038,159.539,251.0184051,0.635566941
TUJRIB,O=C(ON1C(=O)CCC1=O)c1ccc2c(c1)OCO2,1.4399,192.806,303.360778,0.635566672
HURSIY,COc1ccc(C2OCC3C=CC(=O)N32)cc1,1.3396,182.067,286.4640905,0.635566572
KOYMOA,CC1C2=C(c3ccccc3C2=O)N(c2ccccc2)C(=O)C1C(=O)c1ccccc1,1.3159,315.316,496.1185964,0.635565775
BEHLAE,C=CC(=O)NC1c2ccccc2N(C)c2ccccc21,1.287,216.6,340.7988132,0.635565594
PIDBEM,COC(=O)c1cc(-c2ccccc2)c2cc(OC)ccc2n1,1.311,235.964,371.2665782,0.635564885
IMILOH,COc1ccc(/C=C\c2ccc3oc(=O)n(C)c3c2)cc1OC,1.3285,247.163,388.8888428,0.635562075
HIYLEG,CN1C(=O)c2ccccc2/C1=C\C(=O)c1ccccc1,1.2979,213.94,336.6167967,0.635559491
FADSEJ,O=c1ccccn1C(CO)c1ccccc1,1.2929,175.584,276.2674146,0.635558125
ROXVIL,COc1ccc(CN2C(=O)CC3(O)C(O)COC23)cc1,1.3807,213.352,335.6928971,0.635557088
WOBFOJ,CO/C=C1/C(=O)OCC12C(=O)N(C)c1ccccc12,1.3584,201.295,316.7223578,0.635556648
CIXBOA,CC(=O)N(/C=C1\Oc2ccccc2C1=O)c1ccccc1,1.3233,222.589,350.2275338,0.635555399
DUSDOM,Cc1ccc(/C(=C2\C(=C(C#N)C#N)OC(=O)C2=C(C2CC2)C2CC2)c2ccccc2)cc1,1.2597,350.35,551.2502924,0.635555219
GORXES,Cc1ccc(N(c2ccc(C)cc2)c2ccc(-c3ccc(C=C(C#N)C#N)c4nonc34)cc2)cc1,1.2843,383.911,604.0568075,0.635554463
HAGRIR,Cc1nc(C)c(C=O)c(C)c1C#N,1.258,146.044,229.7902282,0.635553571
RACBIG,CC(=O)C12OC34C(CCCN3C1=O)CCN1c3ccccc3C2C14,1.3781,248.244,390.5951382,0.635553226
LIWPAI,COc1ccc(/C=C/C=C(C#N)C#N)cc1,1.2294,180.346,283.7625729,0.635552456
LUNXEZ,Cn1cccc/c1=N\C1=C(c2ccccc2)C(=O)c2ccccc21,1.2873,255.895,402.6387575,0.635544878
YOVCIW,COc1ccc(C2CC(=O)C(C)(C)C(c3ccc(OC)cc3)N2N=O)cc1,1.3116,296.249,466.1398995,0.635536671
XEGVEM,COc1cccc2c1NC(=O)Cc1ccccc1-2,1.3208,191.046,300.6061027,0.635536
OBIDIM,COC(=O)/C(=C/Nc1cccc(C)c1)OC(=O)c1ccccc1,1.3088,250.872,394.7423806,0.635533483
RIYBIN,CC(C)c1ccc(C2(O)c3ccccc3-c3nc4ccccc4c(=O)n32)cc1,1.3191,294.546,463.4629708,0.635532974
VURJUP,COc1ccc(-n2nncc2C(=O)c2ccc3ccccc3c2)cc1,1.3185,263.432,414.5094715,0.635527094
QEVTOD,CCOc1ccc(/N=C/c2ccc(C(=O)O)cc2)cc1,1.2994,218.563,343.9095614,0.635524639
FUVRUJ,COC(=O)C12CC1CC(=O)N2,1.3637,119.996,188.8169821,0.635514871
ACOQIS,CC1(C)OC2C(/C=C/CN3C(=O)c4ccccc4C3=O)OC(n3cnc4c(N)ncnc43)C2O1,1.3995,348.509,548.3897661,0.635513318
YIQCIM,COc1nc(-c2ccc(C)cc2)cc2nc3ccccc3cc12,1.2965,244.298,384.4116256,0.635511477
YEHPOQ01,O=C(Nc1ccccc1)Oc1ccccc1,1.3035,172.511,271.4529742,0.635509707
QERKII,CCOC(=O)n1ccc2cccc(C=O)c21,1.3383,171.175,269.3513466,0.635508239
VORMAR,CN1CCc2cc(OC(=O)Nc3ccccc3)ccc2C1,1.3103,227.234,357.5642343,0.635505395
AZOLEJ,O=C(C1=C(c2ccccc2)NC(O)(c2ccccc2)C1=O)c1ccccc1,1.3061,286.934,451.5072908,0.635502473
JIJKUL,CNC(=O)C1=Nc2c(OC)cc(OC)cc2C2(C)c3ccccc3OC12O,1.3697,283.639,446.3230419,0.635501584
MEWJOQ,CCC(=O)N1N=C(c2ccccc2)CC1c1c2ccccc2cc2ccccc12,1.2814,311.447,490.0846247,0.63549637
TOJRAN,CC1OCN2C(=O)C34C=CC(O3)C3(O)CCCc5cccc(c53)N4C(=O)C12,1.4136,274.828,432.4622739,0.635495895
WAXPAO,CN1CC2C(=O)N(c3ccccc3)C(=O)C2C12C(=O)Nc1ccccc12,1.3601,269.335,423.8211029,0.635492188
PIMYER,O=C1CC2CCN(c3ccccc3)C(=O)N2N1,1.3664,178.482,280.8591553,0.635485782
KOMJOO,Cc1ccc(=O)n(-c2ccccc2)c1,1.2676,154.084,242.4665483,0.6354856
MUXMIC,Cc1ccc(NC(=O)c2cc[nH]n2)cc1,1.3057,162.523,255.7481857,0.635480559
BAJSAG10,CC1=NNC(=O)C2CC(CO)C12,1.336,132.77,208.9296788,0.635476974
ARUVAK,CN(CCCCC(=O)O)c1ccc(/N=N/c2ccc(C(=O)O)cc2)cc1,1.3196,284.013,446.9289286,0.635476878
FIDKIO,COC(=O)C1=CN(c2ccc(OC)cc2)C(=O)C(C#N)C12C(=O)N(Cc1ccccc1)c1ccccc12,1.3358,389.59,613.0766266,0.635467058
GEZGAW,Oc1ccccc1/C=N/c1ccc(N2CCOCC2)cc1,1.3128,226.785,356.8833152,0.6354598
VOCROV,O=C1OCCN1CCOc1ccccn1,1.3589,161.585,254.2833217,0.635452608
ASAPUH,CC(CO)n1cnnc1,1.3146,102.002,160.5203237,0.635446015
LOVPUK,COc1ccccc1NC(=O)c1cccc(OC(C)=O)c1C,1.3157,239.897,377.526509,0.635444119
TICPAY,OC(c1ccccn1)c1c[nH]c2ccccc12,1.3064,181.007,284.8531044,0.635439801
INOHOK,COC(=O)c1cc2c3ccccc3n3c(-c4ccc(C(C)(C)C)cc4)cc(=O)c(n1)c23,1.3172,328.581,517.0944037,0.635437161
KUGZET,N#C/C(=C\c1ccc(/C=C(\C#N)c2ccccc2)o1)c1ccccc1,1.2492,272.088,428.1915498,0.635435239
PICYUY,COC(=O)C1=C(c2ccccc2)C(=O)N(c2ccc(C)cc2)C1=O,1.3229,256.123,403.0681376,0.635433506
FESPOK,Cc1ccc(C)c(C(=O)Cc2nonc2O)c1,1.331,183.993,289.5567288,0.635429889
YOKLUI,COc1ccc(C2=C(C#N)C3CCC=CC3O2)cc1,1.2874,207.457,326.4835551,0.635428636
SIXJAM,COc1ccccc1/C(c1ccccc1)=c1/c2ccccc2n2nnc(CO)c12,1.3151,305.818,481.2819674,0.635423766
UHEVUZ,Nc1ccc(CO)cc1,1.2619,102.907,161.9521421,0.635416109
LOVTOI,Cc1c(/N=C/c2ccc3ccccc3c2)c(=O)n(-c2ccccc2)n1C,1.2914,278.747,438.6854267,0.635414315
YUQLIG,Cc1cccc(C(=O)Nc2ccccc2C)c1,1.2503,189.979,298.9895014,0.635403581
NARBOX,Cc1ccnc(N/C=C2\C(=O)C=Cc3ccccc32)c1,1.293,213.895,336.6286806,0.635403376
FIZDAV,CN(C)C(=O)c1cc(-c2ccccc2)no1,1.2918,176.5,277.7820489,0.63539023
FIVPIM,Cn1c2ccccc2c2c(O)c(C(=O)c3ccccc3)c(-c3ccccc3)c(C#N)c21,1.3047,325.212,511.8329243,0.635387027
ZIHHIH,COC(=O)/C=C1/C(=O)C2=C3N(CCCC2)CCCN31,1.3511,204.708,322.1789441,0.635386029
JUNQIS,NC(=O)C12C3C4C1C1C2C3C41C(=O)O,1.407,143.275,225.4948959,0.635380235
IRABEL,COC(=O)C12CCC(=O)OCCC34OC3C3=C(C(=O)C5CC(N(CC5C)C1=O)C32C)C4=O,1.411,331.383,521.5508169,0.63538008
HOTNIN,CCOC(=O)C(=O)/C(=C\Nc1noc(C(=O)OC)c1NC)C(=O)OCC,1.3929,279.603,440.0574676,0.635378378
IRIQAC,O=C1NC2CC1C1C(c3ccccc3)=NOC21,1.3626,176.618,277.97303,0.635378187
FAMQIV,COc1cc(/C=C/c2ccc3cccc(O)c3n2)cc(OC)c1,1.3087,247.606,389.7034253,0.635370346
TUQMUO,Cc1c2n(c(=O)n(Cc3ccccc3)c1=O)C1CC(N2)C(COCC#N)O1,1.3647,284.627,447.9719533,0.635367902
PAHFUA,COc1ccc(/N=N/c2cc(C)c(O)c(C)c2)cc1,1.2866,210.034,330.5726938,0.635364033
IYITOA,COc1ccc2c(c1)c1c(-c3ccccc3)cc(O)cc1n2C,1.3052,245.036,385.665735,0.635358492
QORRUK,[O-][n+]1ccccc1C1NCCN1CCN1CCNC1c1cccc[n+]1[O-],1.3452,279.372,439.7109728,0.635353715
VOVPUU,COC(=O)C(C)(C)c1cccc(-c2ccccn2)c1,1.2789,210.474,331.270715,0.635353475
RIHSEI,CC12CCC(=O)N1c1ccccc1-c1nccn12,1.3472,187.257,294.729212,0.635352698
HISMOM,CC(=O)N(C1=CC(=O)C=CC1=O)c1ccccc1,1.3123,193.819,305.0577666,0.635351796
FEZJOM,c1ccc2c(c1)CCN1Cc3c(ccc4ccccc34)OC21,1.3092,231.394,364.1993295,0.635349879
FIVTUB,COc1cccc(/C=C2\c3ccccc3C(=O)N2C)c1,1.2877,217.212,341.8825261,0.635341041
NACGAZ,O=c1[nH]n(C2CCCCC(O)CC2)c(=O)n1-c1ccccc1,1.3369,239.243,376.5611931,0.635336313
KUYXOS,Cc1ccccc1C(=O)N/N=C/c1ccc(O)cc1,1.2957,206.907,325.6677003,0.635331658
VAHBUB,O=C(CN(C(=O)OCc1ccccc1)C(=O)c1ccccc1)Nc1ccccc1,1.3129,311.905,490.9354218,0.63532796
YEPGAE,O=C1C=CC23CCCC2(C1)C(c1c[nH]c(=O)c2ccccc12)CO3,1.3445,251.994,396.6376058,0.635325537
FAJTUI,COc1ccc(-c2cnc3c(-c4ccc(OC)cc4)cnn3c2N)cc1,1.3281,274.969,432.8025191,0.635322088
FEWDAP,CC(=O)N(C(C)=O)c1ccc2c(C)cc(C)nc2n1,1.3076,207.45,326.5276371,0.635321414
FUCMEV,CC1(C)N=NC(=O)N1,1.3376,89.173,140.3600695,0.635316015
VOYZEO,COCOC1C2OC(C)(C)OC2C=CC1N1C(=O)c2ccccc2C1=O,1.3705,276.462,435.157034,0.63531548
FOWWOG,O/N=C/c1ccc(N(c2ccccc2)c2ccccc2)cc1,1.2761,238.205,374.9412057,0.635312941
SAQKEA01,O=C(Nc1ccccc1O)c1ccccc1,1.3048,172.285,271.1825198,0.635310123
JAWWOW,CCOC(=O)c1c(C)c2c3ccccc3[nH]c2c2ccccc12,1.3072,244.642,385.0756712,0.635308897
RANMAV,COC(=O)c1nc(-c2ccccc2)c2ccccc2c1C(=O)OC,1.3274,255.204,401.701702,0.635307241
XAYPOE,O=C(c1ccccc1)c1ccccc1C(=O)c1ccc(N(c2ccccc2)c2ccccc2)cc1,1.2793,373.713,588.2426975,0.635304104
UWIXAB,COc1ccc(CN2C(=O)C3(CC3C#N)c3cc(OC)ccc32)cc1,1.3046,270.198,425.3098049,0.635296899
JEGSOD,Nc1ccccc1C(=O)NC1CC(=O)c2ccccc2NC1=O,1.3518,241.234,379.7235489,0.63528849
YIPROE,O=C1NC(=O)C(c2ccccc2)N2C(=O)CCC12,1.3677,188.271,296.3568078,0.635284883
GUKTAH01,COC(=O)CNC(=O)c1ccc(C(=O)NCC(=O)OC)cc1,1.3663,237.892,374.4655263,0.635284114
XOXJAV,COC(=O)C12C(OC)=NC3C4C1C1C2N=C(OC)C3(C(=O)OC)C14,1.4098,250.019,393.5549986,0.635283508
ONONEL,COC(=O)C1=Cc2cc3ccccc3nc2N(Cc2ccc(OC)cc2)C1,1.3188,288.093,453.4885957,0.635281687
XALVAI,COc1ccc(/C=C/C(=O)c2cccc(C(C)=O)n2)cc1,1.2925,229.44,361.1630825,0.635280878
WUFTUP,O=C1C=C(NC2CCC2)C(=O)C=C1NC1CCC1,1.3031,199.264,313.6634305,0.635279668
DIXNAC,COc1ccc(/C(=N\O)c2ccccc2)cc1,1.2823,186.829,294.0913518,0.635275396
BASLEO,Cc1ccc(/C=C/N2C(=O)c3ccccc3C2=O)cc1,1.2936,214.554,337.7357301,0.635271844
DOPWOW,COc1ccc(-c2cc(-c3ccccc3)nc(-c3c[nH]c4ccccc34)c2C#N)cc1,1.2947,326.861,514.5241059,0.635268584
ZOWWAJ,COc1nc(-c2ccccc2)nnc1-c1nnc(-c2ccccc2)nc1OC,1.3481,291.205,458.3968894,0.635268272
OLOVIW,CC(=O)N1CCc2c1nc1ccccc1c2-c1ccccc1,1.2988,234.025,368.3881063,0.635267523
KOHMIE,CC(C)(O)/C(=C/C#N)[n+]1ccc(C(=O)[O-])cc1,1.2998,188.361,296.5071595,0.635266279
XAVGEJ,CCN1C(=O)C2C3c4ccccc4C(c4cc(N)ccc43)C2C1=O,1.3444,249.633,392.9619281,0.635260014
VIXJET,Cc1ccc(-c2noc3ccccc23)cc1,1.2824,171.994,270.7462544,0.635259019
WOVWOT,CC(=O)C1=CN2CCc3c([nH]c4ccccc34)C2CC1=O,1.3388,220.722,347.4523661,0.635258302
SADWEC,Cc1ccccc1N1C(=O)c2ccccc2NC12C(=O)Nc1ccccc12,1.3319,281.275,442.7752285,0.635254599
NOGJOK,COc1cc2c(cc1OC)N(C)C(=O)N(C(C)=O)c1ccccc1-2,1.3374,257.238,404.9393799,0.635250639
TUQQII,O=c1c2ccccc2n(-c2ccccc2)c2ccc3ccccc3c12,1.2999,260.592,410.2193812,0.635250337
VOYMAZ,O=C(c1ccccc1)N1CCN(c2nc3ccccc3c3ccccc23)CC1,1.3034,297.163,467.7918893,0.635246157
UKUVAA,CCOC(=O)/C(=C/Nc1ccc(OC)cc1)C(=O)Nc1ccc(OC)cc1,1.3283,293.961,462.7537897,0.635242772
SIVREU,O=C1C2C=CC(C2)C1C1(O)/C(=N/O)C2C=CC1C2,1.3542,190.93,300.5624606,0.635242338
YOTXIR,CCN(CC)c1ccc2cc(-c3ccc(O)c(O)c3)c(=O)oc2c1,1.3284,258.187,406.4387355,0.63524211
WUGQIB,COc1ccccc1/C=C1\OCc2nc3ccccc3c(-c3ccccc3)c2C1=O,1.3174,314.794,495.5537126,0.635236892
WACYOS,COc1ccc2cc(-c3cc(-c4ccccn4)nc(-c4ccccn4)c3)ccc2c1,1.2998,315.823,497.1743038,0.635235968
QUNSID,COc1nc(OC)nc(-c2c3ccccc3cc3ccccc23)n1,1.3325,251.045,395.1996534,0.635235881
REZZEE01,c1ccc(-c2cc(-c3ccc(N4c5ccccc5Oc5ccccc54)cc3)cc(-c3ccccn3)n2)nc1,1.3154,393.093,618.8169739,0.63523306
QEHQUS,CN1CCC23CN(Cc4ccccc4)CC(C2=O)C2(O)c4ccccc4C(=O)C132,1.341,305.352,480.6931669,0.635232662
LEKQOH01,C/C(=N\N=C(/C)c1ccccc1O)c1ccccc1O,1.2951,218.386,343.7896901,0.635231382
HIGCIJ,O=C(c1ccccc1)C1C2CCOC2ON1c1ccccc1,1.3226,235.378,370.5411104,0.635227761
REMJEB,O=C1C2=C(CN1Cc1ccccc1)C(c1ccccc1)C1CC(c3ccccc3)OC1O2,1.3125,340.111,535.4197536,0.635223108
PEDBEH,CCN(/N=C1\C(=O)Nc2ccccc21)c1ccccc1,1.2998,215.158,338.7142506,0.635219804