name,smiles,Density,Vint,Veff,pc
ULEKEC,Nc1ccccc1N1C(=O)C2C3C=CC(O3)C2C1=O,1.3963,195.73,304.5580505,0.642668942
CUTDEA,CC1=NC12CCc1nc3ccccc3c(=O)n12,1.3471,178.323,277.4736886,0.64266634
TESBIE,COc1cccc(-c2nc3cnccc3[nH]2)c1O,1.37,187.802,292.2233294,0.642666006
XABSAY,COC(=O)c1ccc(N2CCc3ccccc3C2C#N)cc1,1.315,237.075,368.8946218,0.642663205
ELOVAE01,CN1CCC23c4c5ccc(O)c4OC2C(=O)CCC3C1C5,1.3868,219.425,341.4318294,0.642661232
FITRIL,O=Cc1cn(-c2cccc(-n3ccc4ccccc43)n2)c2ccccc12,1.3315,270.204,420.4461006,0.642660259
UBABAC,O=c1c(NCc2ccccn2)c(NCc2ccccn2)c1=O,1.3378,234.619,365.0783739,0.642653788
ERUSOB,Oc1ccc2c(-c3ccccc3)nc3ccccc3c2c1,1.3086,221.085,344.022761,0.642646432
BANJEH02,CN(C)c1ccc(-c2oc3ccccc3c(=O)c2O)cc1,1.3433,223.32,347.5048642,0.642638487
FOSXUJ,COc1ccc(-c2cc(-c3ccccc3)n3c(c2)nc2ccccc23)cc1,1.3085,285.563,444.3604593,0.642638187
OLOPUD,Cc1ccc(C2Nc3ccccc3-c3nc4ccccc4c(=O)n32)cc1,1.3326,271.582,422.6108146,0.642629082
POFMOP,Cc1c2n(c3ccccc13)C(=O)C(C)(CC(=O)c1ccccc1)c1ccccc1-2,1.3097,308.938,480.7425321,0.642626727
CUGBEL,CCOc1[nH]c(=O)c2c(c1C#N)CCCC2,1.3276,175.315,272.8126237,0.642620556
ZUHHIT,CC(=O)Nc1ccc(C(=O)OO)cc1,1.3845,150.341,233.9510825,0.642617244
WUSHAW,Cc1cc(=O)oc2c(NC(=O)C3CC3)c(O)ccc12,1.3776,200.687,312.3081089,0.642592985
LISSIQ,CC(O)C1C(O)CC(=O)N1Cc1ccccc1,1.338,187.515,291.8099197,0.64259296
DMBART11,CN1C(=O)N(C)C(=O)C2(Oc3c(c(=O)n(C)c(=O)n3C)C23C(=O)N(C)C(=O)N(C)C3=O)C1=O,1.487,331.615,516.0630273,0.642586239
TAPRIM,N#Cc1ccc(Oc2ccc(N)cc2)cc1,1.2967,172.877,269.0350174,0.642581779
LOMPIO,CN1C(=O)c2ccc(N(C)C)cc2C1=O,1.3334,163.325,254.1710295,0.642579134
YUPTUZ,Oc1cccc(-c2nc3c(c4c2-c2ccccc2CC4)-c2ccccc2CC3)c1O,1.3358,312.465,486.2671764,0.642578844
KERCIW,COc1ccc(OC)c(C2C(C#N)=C(N)Oc3c2ccc2ccccc32)c1,1.3386,285.483,444.2802716,0.64257411
DELYUP,CCOC(=O)Cn1cc(-c2ccccc2)nn1,1.3283,185.647,288.9151168,0.642565893
VAYTOE,O=C1CC(c2ccccc2)C(=O)N1c1cccnc1,1.3338,201.672,313.8554887,0.642563241
IKOBUF,CCOC(=O)C1C(C)Cc2onc3c2C1(O)C(=O)c1cccc(OC)c1-3,1.3978,272.613,424.2635047,0.642555858
POJWIU,CC(=O)c1ccc2c(c1)CC(=O)NCC2,1.3136,164.97,256.7440168,0.642546619
PECLAM,C#CC(=O)N1CC(=O)OCC1c1ccccc1,1.3301,183.763,285.9936148,0.642542317
GUHCOB01,O=C1c2ccccc2/C(=C/c2ccccc2)N1c1ccccc1,1.2941,244.976,381.2609332,0.642541574
FORNUY,O=Cc1cc2ccccc2nc1N1CCN(C(=O)c2ccccc2)CC1,1.3297,276.956,431.0388172,0.642531459
GUWCIL,COc1ccc(/C(C)=N/O)c(O)c1,1.3424,143.922,223.9953122,0.642522375
ICAVAM,O=C(Nc1cccc2cccnc12)c1ccccc1-c1ccccc1-c1ccccn1,1.3108,326.526,508.2044248,0.642509164
TOLKUC,COC(=O)C1C2NC(=O)NC1(C)Oc1ccc3ccccc3c12,1.4017,237.572,369.7592483,0.642504552
ISAHIT,COc1ccc(/C=C/NC=O)cc1,1.2897,146.493,228.0044598,0.64250059
UQOQAU,O=C(Oc1c(-c2ccccc2)c(=O)n2c3ccccc3c3cccc1c32)c1ccccc1,1.3453,329.225,512.4133447,0.64249888
XEBQAW,COC1C(c2cnc(C#N)c3ccccc23)c2ccccc2C(C#N)N1C(C)=O,1.3194,309.019,480.9660646,0.642496473
TIMLAF,COc1ccc(Cn2nc(-c3ccc(C)cc3)c3ccc(-c4ccc(C#N)cc4)nc32)cc1,1.3009,352.808,549.124335,0.642492014
UCIJOI,C=CCC1(C2(C=O)C(=O)N(C)c3ccccc32)C(=O)N(C)c2ccccc21,1.3277,289.408,450.4487158,0.642488234
BULPOQ,O=C(/C=C/c1ccccc1)c1ccc(OCc2cc(-c3ccccc3)no2)cc1,1.3059,311.387,484.6582902,0.64248772
YABLES,COC(=O)C1=c2ccn3c4ccccc4c(n2-3)=C(C(=O)OC)C(C(=O)OC)C1C(=O)OC,1.4095,333.148,518.5289366,0.642486805
LAVSEH,Cc1ccc(/N=N/c2ccc(Oc3ccc(C#N)c(C#N)c3)c(C)c2)cc1,1.2889,291.482,453.6822731,0.64248047
GOTYOG,O=C(Nc1ccc(C#Cc2ccc3ccc4cccc5ccc2c3c45)cc1)c1ccccc1,1.2995,345.764,538.1732594,0.642477109
IPOMUY,COc1ccc(-n2cc(COc3ccc(CO)cc3)nn2)cc1,1.3468,246.466,383.6185639,0.642476729
HAXPOM,CCN1C(=O)c2cccc3c(N(C)C)ccc(c23)C1=O,1.3327,214.635,334.0902137,0.642446235
JOPDAW,COC(=O)C(O)C(NC(=O)c1nnc(-c2ccc(OC)cc2)o1)c1ccccc1,1.3796,307.097,478.0151754,0.642441947
TEJLEA,COc1ccc2c(c1OC)C(=O)N1CCc3cc4c(cc3C1C2)OCO4,1.3997,269.149,418.94804,0.642440051
WACXUX,COc1ccc2cc(-c3cc(-c4ccncc4)nc(-c4ccncc4)c3)ccc2c1,1.3138,316,491.8763586,0.64243787
BOKGOZ,O=C1N=NC(=C2N(c3ccccc3)N=C(c3ccccc3)N2c2ccccc2)N=N1,1.3589,308.636,480.4165146,0.642434202
TUHQIZ,CN1C(=O)N(C)C2(n3cccn3)N=C(n3cccn3)N(C)C2(n2cccn2)C1=O,1.4146,297.258,462.706386,0.64243332
VOPXOQ,CCOc1ccc(-c2cnn(C3CCCO3)n2)cc1,1.3304,207.791,323.4476298,0.642425484
YEPLIO,O=c1cccccc1N1CCOCCN(c2cccccc2=O)CCOCC1,1.3264,307.391,478.4857363,0.642424584
EZUVAW,COc1ccc2[nH]c(C(=O)c3cc4cccc(OC)c4[nH]3)cc2c1,1.3538,252.253,392.6612373,0.6424189
QAJKAP,N#C/C(=C\c1ccccc1)C(=O)NCc1ccccc1,1.2649,221.06,344.1069524,0.642416547
EHIMIT,CCOC(=O)CNC(=O)c1nc2ccc(C)cc2cc1OCCO,1.3586,260.799,405.9672239,0.642413931
HIGYII,CO/N=c1\oc2c3ccccc3n(Cc3ccccc3)c(=O)c2c2ccccc12,1.3522,301.475,469.2855876,0.642412654
LILJEX,O=c1c(-c2ccccc2)nn(-c2ccccc2)c(-c2ccccc2)c1O,1.321,274.669,427.5588401,0.642412165
ZUMDES,CN1C(=O)C2(c3ccccc3)C(=O)N(C)C1(c1ccccc1)c1cnccc12,1.3428,293.27,456.5137886,0.64241214
ODIDOU,CC(=O)Oc1ccc2ccccc2c1/N=N/c1c(OC(C)=O)c2c(c3ccccc13)C(=O)c1ccccc1-2,1.3604,392.192,610.502698,0.642408299
ZAGXAJ,C=C1CCCc2nc3ccccc3c(=O)n21,1.3301,170.106,264.7958015,0.642404445
HOFHOA,COC(=O)N/N=C(\C)c1ccccc1O,1.3438,165.188,257.1406504,0.642403291
ILOKEC,COC(=O)C1=C(C)NC(=O)NC1c1cc2ccccc2c2ccccc12,1.3491,273.696,426.0517171,0.642400885
TORVAA,C(=C/c1ccc(/C=C/c2ccccc2)c2nonc12)\c1ccccc1,1.291,267.829,416.9202732,0.642398601
ZEXRUP,Cc1ccc(N2C(=O)c3ccccc3C2=O)cc1,1.3205,191.523,298.1396077,0.642393681
YUDBOQ,O=C1c2ccccc2C2(O)c3cc4ccccc4cc3CCN12,1.3472,238.426,371.1577559,0.642384528
JARPEX,O=C1C=Cc2ccccc2/C1=N/Nc1ccccc1,1.3077,202.38,315.0466434,0.64238107
VUZBIE,COc1ccc(C2=Nc3ccccc3N3C(=O)c4ccccc4C3C2)c(O)c1,1.3611,290.084,451.576498,0.64238064
JUBLOH,Cc1cc(C)nc(N2C(=O)c3ccccc3C2=O)c1,1.3332,201.705,313.9967377,0.642379285
ATUYET,N#Cc1ccc(OC2CCc3ccccc32)cc1C#N,1.2878,215.446,335.3887991,0.642376849
CUBXIJ,N#Cc1c(-c2ccccc2)oc2c1cc(-c1ccccc1)c1ccccc12,1.2939,284.523,442.9233895,0.642375198
AZUZAX,O=C1CCC(C(=O)Nc2ccccc2)N1,1.3441,161.972,252.1476458,0.64236967
QEHGUF,O=C1OCC2C(COC(=O)N2Cc2ccccc2)N1Cc1ccccc1,1.3658,275.03,428.1501795,0.64236806
HAVSAY,O=c1oc(N2CCOCC2)nc2ccccc12,1.3987,176.999,275.5415787,0.642367663
BPIMDZ,O=C1NC(c2ccccc2)=N/C1=C\c1ccccc1,1.3054,202.731,315.6017278,0.642363403
ATOCAQ,Cc1cccc2oc3cc(-c4ccc(N5c6ccccc6C(C)(C)c6ccccc65)cc4)ccc3c(=O)c12,1.3139,400.411,623.3464189,0.642357103
LUDZOZ,O=C(c1ccccc1)n1c2ccccc2c2ccccc21,1.3041,221.748,345.2098652,0.642357077
CORJOK,Cn1nc(O)c2ccccc21,1.3404,117.829,183.4336904,0.642352012
YAPBAT,COC(=O)c1ccc2cc3c(cc2c1)CCN(Cc1ccccc1)C3=O,1.3282,277.182,431.5115653,0.642351265
AOTETC,CC(=O)OC1C2C(N(C)C)C(O)=C(C(N)=O)C(=O)C2(OC(C)=O)C(O)=C2C(=O)c3c(O)cccc3C(C)(O)C21,1.4288,406.255,632.4520967,0.642349045
NIFXOP,O=C1C2C3OC4(C(=O)OCC(c5ccccc5)N4C3=O)C2C(=O)N1c1ccccc1,1.4249,302.51,470.9452233,0.642346466
PICWEA,CC1(C)OC2C3CON4C(=O)NC(=O)C4(O3)C2O1,1.5003,182.059,283.4293619,0.642343471
DAHPAD,O=C1CCC2N1CC2(O)c1ccccc1,1.3249,163.511,254.5542609,0.64234242
MIRVIU,CC1=Nc2ccccc2C2NC(=O)c3ccccc3N12,1.3529,207.44,322.9459638,0.642336562
HABNIH,COc1ccc(C2C3CCCC(C3=O)C(c3ccc(OC)cc3)N2N=O)cc1,1.3479,300.851,468.370274,0.642335812
ZAQYUN,COc1cccc(-c2c[nH]cc2C#N)c1OC,1.3138,185.184,288.2981053,0.642335127
UPEXET,O=C1C(c2ccccc2)=CC(O)(c2ccccc2)N1Cc1ccccc1,1.2973,280.492,436.6759468,0.642334441
MAZHIG,COC(=O)N1C(=O)C(C)(O)c2ccccc21,1.3916,169.449,263.8019993,0.642334025
TINXAP,CCn1c2ccc3cc2c2cc(ccc21)COCc1ccc2c(c1)c1cc(ccc1n2CC)COC3,1.3203,383.127,596.4610673,0.642333626
TAKJOE10,O=C1CCC2CC(=O)N3CCCc4cc5c(cc4C23C1)OCO5,1.4062,237.52,369.7809815,0.642326166
MUCGOH,COc1cccc(/C=N/c2ccc(C)cn2)c1O,1.3153,196.335,305.664441,0.642322016
LIZBEC,CN(C)c1ccc(C2OC(CO)C(O)C2O)cc1,1.3491,200.133,311.5781012,0.642320494
ELENEQ,Cc1nn2c(CCCC(=O)O)nc3ccccc3c2nc1=O,1.383,229.911,357.943459,0.642310941
LOBPUP,CC(=O)OCCOCn1c(C)nn2c(=O)c(-c3ccccc3)cnc12,1.3746,265.476,413.3171367,0.642305814
POFMAZ,COc1ccc(C(=O)N/N=C/c2c(OC)ccc3ccccc23)cc1,1.3276,268.446,417.9415272,0.642305161
MAZFIF,CCOc1cccc(/C=N/NC(=O)c2ccncc2)c1O,1.3456,225.998,351.8548554,0.642304622
HOHREE,O=C1c2ccc(-c3ccccc3)cc2C(=O)N1c1cccc2cccnc12,1.3374,279.214,434.7130547,0.642294951
CUFFUE,COC(=O)/C(=C/c1c[nH]c2ccccc12)NC(C)=O,1.3365,205.976,320.6895581,0.642290947
PIMWIU,O=C1CC(c2ccc(OCc3cn(-c4ccccc4)nn3)cc2)Oc2ccccc21,1.3499,313.791,488.5510559,0.642289063
XOZJEC,COc1cccc(/C=N/c2cccc(C#N)c2)c1O,1.3043,206.145,320.954114,0.642288075
NUVKUK,CC(=O)OCC(O)C1COCC2(C)C3C(=O)N(C)C(=O)C3ON12,1.4307,244.617,380.8539741,0.642285539
SEHCOY,Cn1cccc1C(=O)NCCC(=O)O,1.3544,154.415,240.4152436,0.642284564
LUPMOB,Cc1ccc(-c2cc(C#N)c(-c3cn(C)c4ccccc34)o2)cc1,1.2903,258.007,401.702606,0.64228361
XUJGUH,CCn1cc(C(=O)/C=C/c2ccc(OC)cc2)c2ccccc21,1.286,253.076,394.0265209,0.64228164
UXOPEE,COC(=O)c1cc(NCc2ccccc2)cc(C(=O)OC)c1,1.3299,239.889,373.4954717,0.642280879
SIZTUR,CN(C)C(=O)c1cc2c3ccccc3ccn2c(=O)c1CC(=O)c1ccccc1,1.3272,308.708,480.6473478,0.642275467
QIGQAB,CO/N=C(/CNC(=O)c1ccccc1)c1ccccc1,1.2942,220.961,344.0287651,0.642274782
JIZKUY,Cc1ccc2[nH]cc(CC(=O)O)c2c1,1.3311,151.502,235.8835187,0.642274631
DUDNAS01,COc1ccccc1N1C(=O)c2ccccc2C1=O,1.3539,199.363,310.4029153,0.642271674
ZUWGON,O=C1C=Cc2ccccc2/C1=C/Nc1ccc2ccccc2c1,1.302,243.385,378.9475988,0.642265582
ODETIA,O=C1CCCCC(Cc2ccccc2)NC(=O)CNC(=O)CN1,1.3229,255.709,398.1397289,0.642259442
XAFPUR,COc1cc2c(cc1OC)C1(O)c3ccccc3C(=O)N1CC2,1.3753,241.267,375.6553682,0.642256229
TIKXIW,Oc1ccccc1/C=N/Nc1cc(N/N=C/c2ccccc2O)nc(-c2ccccc2)n1,1.3483,335.522,522.4119435,0.642255607
JUXHUF,O=CNn1cccn1,1.361,87.017,135.4874655,0.642251294
TUMPID,O=C(NN1CC(=O)N(NC(=O)OCc2ccccc2)CC1=O)OCc1ccccc1,1.3956,314.955,490.3961271,0.6422461
RIYGEL,COC(=O)C(=C1c2ccccc2-c2ccccc21)[C@@H](Nc1ccccc1)C(=O)OC,1.3189,322.764,502.5578928,0.642242425
LUYRAY,CC(=O)Oc1cc(=O)n2c(n1)OC(COc1ccccc1)C2,1.4029,229.65,357.5815132,0.642231188
BUJJEV,COC(=O)C(C)C(c1ccccc1)C(C#N)C#N,1.2645,204.192,317.9441988,0.642225903
WUDNAM,CC(=O)N/N=C(\C=N\O)c1ccccc1,1.3278,164.723,256.4876948,0.642225741
VEJCES,Cc1nc2cc3c4c(c2oc1=O)CCCN4CCC3,1.3729,198.957,309.7930131,0.642225588
QETROZ,Cc1cc(C)c2c(C3Oc4ccccc4C3Nn3cnnc3)cc(=O)oc2c1,1.3696,291.331,453.6312653,0.642219843
MOSQIV,COC(=O)c1ccc(C#N)nc1-c1nc(C#N)ccc1C(=O)OC,1.3572,253.078,394.0685103,0.642218278
MANPIM01,CN(c1ccccc1)N1C(=O)c2ccccc2C1=O,1.3343,201.488,313.7378782,0.642217641
ZAFXAJ,Nc1ccccc1C(=O)N/N=C/c1ccc(O)cc1O,1.3678,211.371,329.1281656,0.642214864
VAXCII,COc1ccc2c(c1)C1(CC1C#N)C(=O)N2C,1.3232,183.833,286.2500383,0.642211268
FODNIW,COc1cc2c(cc1OC)C1(C)C(=O)N(C)C(Cc3ccccc3)C(=O)N1CC2,1.3423,313.18,487.6634737,0.642205162
QIZQIC,CCOC(=O)C1=C(N)Oc2c(c(=O)oc3ccccc23)C1c1ccc(OCC)cc1,1.3821,314.15,489.176988,0.6422011
AGALAM10,CC(=O)NC1C(O)OC(CO)C(O)C1O,1.447,162.943,253.7262956,0.642199893
IJUXOC,CNc1cc(=O)[nH]c(=O)n1COCCOC(=O)c1ccccc1,1.3864,245.468,382.2312409,0.642197638
JOBXEF,CCOC(=O)C1=NN(c2ccccc2)C(=O)CO1,1.381,191.571,298.3064166,0.642195372
RIPTUH,O=C(N/N=C\c1ccc2ccccc2n1)c1ccccn1,1.3318,221.086,344.2660346,0.642195215
LERGUL,O=C1OC(=O)c2ccc(N(c3ccccc3)c3c4ccccc4cc4ccccc34)c3cccc1c23,1.348,367.978,573.0012322,0.642194081
OCANOV,O=C(COc1ccccc1/C=C/c1ccccc1)N/N=C/c1ccccc1O,1.3107,302.791,471.4945906,0.642194006
POCXEL,COc1ccc(/N=C(\C#N)c2ccccc2)cc1,1.274,197.628,307.7388506,0.642193859
QIMSIR,CCOC(=O)C1=C(N)Oc2c(c(=O)oc3ccccc23)C1c1ccccc1OC,1.3865,302.366,470.8381728,0.642186673
KEPMOJ,COc1ccc2c(c1)/C(=C\C(=O)C1CC1)C(=O)N2Cc1ccccc1,1.3159,269.976,420.4015967,0.642185953
KOFMAT,Cc1cnc(NC(=O)OCc2ccccc2)o1,1.3547,182.696,284.4910356,0.642185437
NOQYUP,O=C(NCc1ccccc1NC(=O)c1ccccn1)c1ccccn1,1.332,265.904,414.06204,0.642183959
DIGQOA,O=C1C=CN(C(=O)c2ccccc2)C(c2ccccc2)N1,1.3255,223.744,348.4134585,0.642179556
QOZFER,Cc1n[nH]c2c1C1(C(=O)Nc3ccccc31)C(C#N)=C(N)O2,1.4017,222.981,347.2264897,0.642177387
VIMHOR,COC(=O)c1c(-c2ccccc2)nn2c3ccccc3c3ccccc3c12,1.3323,281.844,438.8894602,0.642175367
GUZCOU,O=C(Nc1ccccn1)C1=Nc2ccccc2-c2ccccc2N1,1.3438,249.271,388.1695888,0.642170348
JUSDOQ,COc1ccc(/N=c2/n(-c3ccc(OC)cc3)c3nc4ccccc4c4ccccc4n2-3)cc1,1.3339,356.694,555.451685,0.642169264
MAZDAU,COc1cc(C2=NC(C)(C)N=C2C)ccc1O,1.3042,189.793,295.5531572,0.642161978
OXUWUC,COC(=O)/C=C/N1C(=O)C(C(=O)OC)C1c1c2ccccc2cc2ccccc12,1.3447,308.585,480.5407685,0.642161956
SESQUF,CC1=N/C(=C\c2ccncc2)C(=O)N1c1ccccc1,1.3092,214.302,333.7256298,0.64215026
DAFSUY,CNc1ccc2cccc(O)c2n1,1.3262,139.971,217.9732371,0.642147641
QAQQEE,COC(=O)C1CC(=O)C2CC(=O)OC2C(C)CC(=O)N1C(=O)OCc1ccccc1,1.3992,317.908,495.0733377,0.642143246
SIYZEG,COC(=O)C(CCC#N)(CCC#N)C(=O)OC,1.3029,194.865,303.4623915,0.64213888
RUYLEE,COC(CNc1nnc(Nc2cccc(C)n2)nn1)OC,1.3773,225.41,351.0305274,0.642137884
VUHDEJ,N#CCC(=O)NCc1ccco1,1.3203,132.501,206.3437657,0.642137162
HUHQIK,CCc1c(Cc2cccc3ccccc23)n(COC)c(=O)[nH]c1=O,1.3319,259.515,404.1438247,0.64213526
JIXREO,COc1ccc(/C(C)=N/CC/N=C(\C)c2ccc(OC)cc2O)c(O)c1,1.3194,287.857,448.2809551,0.642135243
EDIXEW,CC(C)=C1C(=O)n2c(nc3ccccc3c2=O)/C1=C(/C)c1cc(C)oc1C,1.3282,289.14,450.2791448,0.642135003
ILIMIZ,O=C(/C=C/c1ccccc1)c1ccccn1,1.2688,175.717,273.6483264,0.642127077
FUBXUW,CC1=CC(=C(C#N)C(=C(C#N)C#N)c2ccccc2)C=C(C)O1,1.267,251.727,392.0246207,0.642120384
HIYFED,CC(=O)/C=C\c1cn(-c2ccccc2)c(=O)cc1-c1ccccc1,1.2832,261.859,407.8071363,0.642114805
KATBOX,COC(=O)c1ccccc1NC(=O)CCC(=O)O,1.3748,194.737,303.2749534,0.642113692
PAQCUI,CC1CC2OC(=O)C3(CCN=N3)C2C(O)C2(C)C(=O)C3N=NCC3C12,1.3987,263.891,410.9817067,0.642099139
BADSUV,CC(=O)OC1COC12C(=O)N(C(C)=O)c1ccccc12,1.3911,210.846,328.3709338,0.642097026
UNEJED,COc1ccc(-c2c(C#N)c3c4ccccc4ccn3c2C(=O)c2ccccc2)cc1,1.3097,327.391,509.878916,0.642095583
FOQQOT,O=C([O-])c1ccc(Cc2cc(-c3ccccc3)[nH+]n2Cc2ccccc2)cc1,1.3104,299.562,466.5399914,0.642092866
QUMSIC,COc1ccc(N2C(c3ccc(C)cc3)=NOC2c2cc3cc(C)ccc3nc2-n2cncn2)cc1,1.3412,378.576,589.5997617,0.642089812
NASXOX,CN(C)c1ccc(C=C2C(=O)OC3(CCCC3)OC2=O)cc1,1.3528,237.346,369.6472622,0.642087807
NOQDUT,O=c1[nH]nc(Cn2cncn2)n1C1CCCCC1,1.3784,191.943,298.9399966,0.642078685
AVUYUM,OCc1ccccc1/N=C/c1cc(O)ccc1O,1.3378,193.742,301.7450258,0.642071893
FAFDAU,COc1ccc(N2C(=O)C(Oc3ccccc3)C23c2ccccc2-c2nc4ccccc4nc23)cc1,1.353,371.293,578.2745446,0.642070455
IXOBIJ,NC(=O)C1(Cc2ccccc2)OC(=O)c2ccccc21,1.3435,211.965,330.1294348,0.642066346
ASIFIR,CC(=O)Nc1ccc(-c2ccc(NC(C)=O)cc2)cc1,1.2999,219.92,342.5202152,0.642064294
ZOKMUK,CCOC(=O)n1c2ccccc2c2oc(C/C=C/N3CCOC3=O)cc21,1.3862,272.376,424.2203736,0.642062515
GOQNAB,CC1=CN2C(=O)N3CC(C)=CN4C(=O)N(C1)C2C43,1.4141,185.564,289.012834,0.642061452
OKEZUC,CC(C)c1nn(-c2ccccc2)c2nc3cc4c(cc3cc12)OCO4,1.3598,259.634,404.3814728,0.642052165
SILGIE,C[NH+](C)CCCNC(=O)C(=O)Nc1ccccc1C(=O)[O-],1.3391,233.392,363.5159627,0.642040581
JIPDIY,CCOc1nc2c3ccccc3c(-c3ccccc3)cc2c2ccccc12,1.3126,283.597,441.7133556,0.642038545
FUZQUP,COc1ccc(C2=C3C(c4ccccc4)=CC(=O)N3Cc3ccccc32)cc1,1.3153,295.979,461.0006127,0.642036023
TIVDAG,O=C(N/N=C/c1ccc2ccc3cccc4ccc1c2c34)c1cccnc1,1.3326,279.318,435.0526661,0.642032613
HUPDAY,COc1ccc(/C=N/NC(=O)c2cc(-c3ccc(OC)cc3)[nH]n2)cc1,1.3427,278.023,433.0371497,0.642030367
AXAPOH,C#CCOc1ccc(C2C(C#N)=C(N)Oc3c2ccc2ccccc32)cc1,1.3103,286.511,446.2584353,0.642029321
IDOVEF,COc1ccc(C#Cc2ccc3c(c2)C(=O)c2cccn2-3)cc1,1.3069,243.997,380.0417326,0.642026859
POVKEQ,CC1(CO)COC(=O)N1,1.4021,99.655,155.2209675,0.642020222
VOWRIK,Cc1ccc(O)c(C(=O)c2oc3c(c2-c2ccc(C#N)cc2)c(=O)oc2ccc(C)cc23)c1,1.3539,342.627,533.6766252,0.642012379
TAQXOZ,O=C(Nc1ccc(C#Cc2ccccc2)cc1)c1ccccc1,1.265,250.405,390.0314416,0.642012344
FONHIA,N#Cc1ccc(Oc2ccccc2C(=O)OCc2ccccc2)cc1C#N,1.3118,287.782,448.253693,0.642006981
ZOGCEF,CCn1c2ccccc2c2cc(/C=C3\Oc4ccccc4C3=O)ccc21,1.321,273.692,426.3077345,0.64200571
XEDTIK,C=CCN(CC=C)C(=O)c1cc2ccccc2oc1=O,1.3058,219.709,342.2239885,0.642003505
WITPAT,CCCCCCOc1ccc2nc3c(nc2c1)C(=O)c1ccccc1C3=O,1.3314,288.382,449.1969055,0.641994627
WAJVOT,O=C1C=CC2C3CC(C12)C1C(c2ccccc2)=NOC31,1.3496,209.419,326.2019331,0.641991904
ESOJUT,N#CC1=C(N)Oc2c(c(=O)oc3ccccc23)C1c1ccc(C#N)cc1,1.3612,267.132,416.1016136,0.641987417
MEPXOU,CN(C(=O)Nc1ccncc1)c1ccccc1,1.2905,187.61,292.2371131,0.641978693
IRAPEX,COC(=O)c1ccc(-c2nc3ccccc3nc2-c2ccccc2)cc1,1.3186,274.983,428.3370451,0.641978094
SIDYEJ,CCOC(=O)c1cc(C#N)c(=O)[nH]c1-c1ccccc1,1.3348,214.112,333.5193332,0.641977777
DAZFIW,COC(=O)c1cccc(C)c1NC(=O)c1ccccn1,1.3334,215.948,336.3797769,0.641976762
UGORIS,COc1c2c(cc3c1C1NOC4c5c(cc6c(c5OC)OCO6)CCN4N1CC3)OCO2,1.4584,322.475,502.3173809,0.641974601
MUDDEU,CC(C)([N-][N+]#N)C(=O)O,1.3498,101.925,158.7692875,0.641969247
VUXREL,CCOC(=O)c1cc2occc2[nH]1,1.3753,138.795,216.2030965,0.641965829
XEXPIA,COC(=O)c1cc(N)n(-c2ccccn2)n1,1.3769,168.846,263.0142144,0.641965304
MEANAC,CNc1ccccc1C(=O)O,1.3176,122.221,190.3884058,0.641956108
POPXUO,CCOC(=O)c1c(-c2cc(OC)cc(OC)c2)c[nH]c1-c1[nH]cc(-c2cc(OC)cc(OC)c2)c1C(=O)OCC,1.3556,431.11,671.5603918,0.64195269
BIRYIK10,Oc1cccnc1,1.3057,77.592,120.868983,0.641951293
BIHPEO,COc1ccccc1C(=O)NNC(=O)c1cccc(C(=O)NNC(=O)c2ccccc2OC)c1OC,1.3813,379.826,591.6805671,0.641944355
BAFGUO,C=CCc1cccc(/C=N/c2ncccc2OCc2ccccc2)c1O,1.2894,284.528,443.2291025,0.641943407
SALXUY,COc1ccc(/N=C2/N(C(=O)Nc3ccc(OC)cc3)Cc3nc4ccccc4n32)cc1,1.3638,333.891,520.1270482,0.641941236
TAVJOQ,COc1ccc(C(O)C2COC(=O)N2C)cc1,1.3608,185.733,289.3360077,0.641928398
BEBJIE,COC(=O)C(c1nc2ccccc2oc1=O)C1CC(=O)N(c2ccccc2)C1=O,1.3982,298.937,465.6863458,0.641927775
OKUJAG,O=C1OCCN1/N=C/c1c(O)ccc2ccccc12,1.3757,198.431,309.1185621,0.641925217
YEDTOR,CN1CNC(=O)N2Cc3ccccc3CC2C1=O,1.3721,190.43,296.6550093,0.641924101
IHUPUY,COc1ccc(C(=O)Nc2cccc(O)c2)cc1,1.3324,194.481,302.9679493,0.641919386
MALBIM,N#CN1CCN(c2nc(N3CCCC3)oc(=O)n2)CC1,1.3968,210.73,328.2841111,0.641913491
OCAKOS,COC(=O)N1CC2CC23C1=C(C)C(=O)c1ccccc13,1.3508,212.359,330.8232781,0.641910694
EBEVIS,C(=N/c1ccccc1)\c1ccc(/C=N/c2ccccc2)o1,1.2806,228.166,355.4490739,0.641909114
OKOXOC,N#Cc1cccc(OCC(O)CO)c1,1.322,155.676,242.5253458,0.641895797
NIBPET,COC(=O)c1nn2c(cc3cccccc32)c1C(=O)OC,1.3763,220.017,342.761579,0.641895164
XUSTAI,CC(=O)OC1CO/C(=N\NC(=O)c2ccccc2)c2ccccc21,1.3552,254.927,397.1507808,0.641889711
AVITUX,Cn1nc2ccc(NC(=O)OC(C)(C)C)cc2c1-c1ccc(C=C(C#N)C#N)o1,1.3301,311.854,485.8435305,0.641881553
PIMGAV,CC(=O)c1cc(/N=N/c2ccccc2)c2ccccc2c1O,1.3213,234.029,364.6024667,0.641874429
VIHGOL,COc1ccc(-c2c(O)c(=O)n(C)c3ccccc23)cc1,1.3378,223.971,348.9335356,0.641872956
RIKXUE,COC(=O)C1OC(=O)C2C1N2C(C)=O,1.4247,148.918,232.0061971,0.641870786
AFAFOD,CCOC(=O)C1=NN(c2cccnc2)c2ccccc2O1,1.3735,219.692,342.2706261,0.641866357
COYSUG,O=C1CCC(CN2C(=O)c3ccccc3C2=O)O1,1.3834,188.82,294.1746872,0.641863519
OFULOT,O=C1CCCCC1C1Nc2ccccc2OC1=O,1.3636,191.59,298.490528,0.641862914
WADJOC,CCOC(=O)CCc1nc2ccccc2[nH]c1=O,1.357,193.303,301.1602022,0.641861038
KEQPIG,COc1ccc(/C(C)=N/NC(=O)c2ccccc2O)cc1,1.3267,228.258,355.6216048,0.641856392
JAYLAX,COc1cccc(/C=N/NC(=O)c2ccccn2)c1O,1.3569,212.95,331.7720576,0.641856344
WUSRAE,CCn1c2ccccc2c2c3cc4c(nc3ccc21)-c1c(ccc2ccccc12)OC4,1.3312,320.398,499.1749171,0.641855168
GIJVOK,COc1ccc(C(=O)N2CCCC2=O)cc1,1.3417,174.046,271.1635205,0.641848873
DUPDIC,O=C1C(=O)N(CCN2CCOC2=O)c2ccccc21,1.3958,198.6,309.4199464,0.641846146
SENPEI,N#[N+][N-]C1C(O)C2OCOC(C2O)C1OCc1ccccc1,1.4127,231.712,361.0095507,0.641844515
GUHKOL,CCOC(=O)c1cc(C#N)c(N)c(C#N)c1-c1ccccc1,1.3082,237.172,369.516855,0.641843523
NAQGUJ,CN(C)c1ncnc2c1ncn2C1CC(O)C2ON=C(c3c4ccccc4cc4ccccc34)C21,1.3638,362.779,565.2177742,0.641839334
GEFPEO,COC(=O)C1=C(C(=O)OC)C2(C(=O)Nc3ccccc32)C(C#N)=C(N)O1,1.4151,267.442,416.6819098,0.641837319
JURNAO,COC(=O)C1=C(C)NC(=O)NC1c1ccc2ccccc2n1,1.3701,231.128,360.1073597,0.641830815
ZIHQEM,CCOC(=O)c1c2ccccc3c(-c4ccccc4)c(-c4ccccc4)c4nnc1n4c32,1.333,333.536,519.6665531,0.641826952
RIFZAI,Oc1cccc2ccc(/C=C/c3ccnc4ccccc34)nc12,1.3096,242.617,378.010449,0.641826173
FUPXUJ,COC(=O)C1(O)C(OC)=C(C2=C(OC)C(O)(C(=O)OC)N(C)C2=O)C(=O)N1C,1.4379,296.574,462.0805665,0.64182314
MUBNON,Nc1cccc(Oc2ccc(C(=O)c3ccc(Oc4cccc(N)c4)cc3)cc2)c1,1.3291,317.671,494.9532466,0.641820217
XUKRUT,COC(=O)C1=CN(C)c2ccccc2C1C(=O)OC,1.3497,206.18,321.2438611,0.641817712
PUKJAH,O=C(NC1=CCN(C(=O)c2ccccc2)C1=O)c1ccccc1,1.3424,243.028,378.6579219,0.641814117
VOVCUE,O=C(N=C1NCCN1)c1ccccc1,1.3256,152.029,236.876287,0.641807595