name,smiles,Density,Vint,Veff,pc
TATNBZ,Nc1c([N+](=O)[O-])c(N)c([N+](=O)[O-])c(N)c1[N+](=O)[O-],1.9363,175.858,221.2945952,0.794678242
SOBGAR,O=C1N[C@@H]2[C@H](N1[N+](=O)[O-])N([N+](=O)[O-])[C@H]1[C@H](NC(=O)N1[N+](=O)[O-])N2[N+](=O)[O-],1.9454,222.501,466.3384246,0.792311208
ASUDEA,N#Cc1nn2nnc([N+](=O)[O-])c2nc1N,1.8544,145.224,184.4982401,0.78712946
SEDTUQ03,NC(N)=C([N+](=O)[O-])[N+](=O)[O-],1.8925,102.091,129.8850286,0.786010529
TIBMIA01,Nc1c([N+](=O)[O-])cc([N+](=O)[O-])c(N)[n+]1[O-],1.8869,148.067,189.2401668,0.782429029
PUBMUU20,O=[N+]([O-])N1C2C3N([N+](=O)[O-])C1C1N([N+](=O)[O-])C(C(N1[N+](=O)[O-])N3[N+](=O)[O-])N2[N+](=O)[O-],2.0622,275.939,352.7207276,0.782315805
JUNBEB,Nc1c([N+](=O)[O-])nnc2c([N+](=O)[O-])c([N+](=O)[O-])nn12,1.9452,180.019,230.5049132,0.780976845
NACXEU,O=[N+]([O-])C12C3C4([N+](=O)[O-])C1C1([N+](=O)[O-])C2C3([N+](=O)[O-])C41[N+](=O)[O-],1.9583,217.697,278.9753655,0.780344887
HIHZUT,O=c1[nH]c2cc([N+](=O)[O-])c([N+](=O)[O-])cc2[nH]c1=O,1.8542,175.824,225.699993,0.779016418
BICWEP,NC(=O)c1c([N+](=O)[O-])c(N)c([N+](=O)[O-])c(N)c1[N+](=O)[O-],1.8864,195.551,251.7923452,0.776636001
BAKLII,Nc1c([N+](=O)[O-])c(N)c([N+](=O)[O-])c(O)c1[N+](=O)[O-],1.8895,175.58,227.6405298,0.771303775
TENZUJ,O=[N+]([O-])Nc1n[nH]nc1[N+](=O)[O-],1.9177,115.961,150.6842767,0.769562708
NAYNUX01,O=[N+]([O-])N1[C@H]2O[C@H]3[C@H]4O[C@@H]1[C@H](N4[N+](=O)[O-])N([N+](=O)[O-])[C@@H]2N3[N+](=O)[O-],2.0142,222.009,288.573307,0.769333111
WEKGUP,O=[N+]([O-])C1=CC(=[N+]([O-])[O-])[N+](=O)C([N+](=O)[O-])=C1,1.8746,156.424,203.7369539,0.767774314
JOWWIB,Nc1nc([N+](=O)[O-])n[nH]1,1.8178,90.206,117.8705119,0.765297431
MUGNUX01,O=[N+]([O-])N1[C@H]2O[C@@H]3O[C@H]2N([N+](=O)[O-])[C@H]2O[C@@H]3O[C@H]21,1.9868,167.169,218.9994091,0.763330827
SOBFOE,O=C1N[C@H]2[C@@H](N1[N+](=O)[O-])N([N+](=O)[O-])[C@H]1NC(=O)N([N+](=O)[O-])[C@H]1N2[N+](=O)[O-],1.9704,243.174,318.5908264,0.763279981
BOSVIO,O=c1[nH]c2c([N+](=O)[O-])cc([N+](=O)[O-])cc2c2c([N+](=O)[O-])cc([N+](=O)[O-])cc12,1.8126,261.973,343.5614541,0.762521514
JERVUY,O=c1[nH]cc([N+](=O)[O-])cc1[N+](=O)[O-],1.8018,129.574,170.5089759,0.759924803
TIBMUM,Nc1nc(N)c([N+](=O)[O-])c(N)c1[N+](=O)[O-],1.8181,148.423,195.5025655,0.759186968
CIWMEA10,O=[N+]([O-])N1CC([N+](=O)[O-])([N+](=O)[O-])C1,1.861,222.368,487.4877868,0.757484209
MAJTIB,O=C1NC(=O)c2cc([N+](=O)[O-])ccc21,1.7149,140.696,185.9371434,0.756685821
DACYEL,Nc1c([N+](=O)[O-])c(N)c([N+](=O)[O-])c(C(=O)O)c1[N+](=O)[O-],1.8621,193.676,255.9557147,0.756677772
NNAPAN10,O=C1OC(=O)c2ccc([N+](=O)[O-])c3c([N+](=O)[O-])ccc1c23,1.7761,203.511,269.273055,0.755779296
ZZZLYS01,O=[N+]([O-])c1cc([N+](=O)[O-])c(O)cc1O,1.7925,139.787,185.2895496,0.754424631
DATNBZ01,Nc1c([N+](=O)[O-])cc([N+](=O)[O-])c(N)c1[N+](=O)[O-],1.8529,222.367,489.6188523,0.754183869
NUMXAV,CNC(N)=C([N+](=O)[O-])[N+](=O)[O-],1.7496,115.961,153.7961849,0.753991395
TICYOT,O=[N+]([O-])c1c(O)c([N+](=O)[O-])c(O)c([N+](=O)[O-])c1O,1.8864,173.122,229.7470811,0.753532968
VAZCAC01,Nn1nc([N+](=O)[O-])nc1[N+](=O)[O-],1.854,117.318,155.8615089,0.752706687
NMALAM,NC(=O)/C(=C(/N)O)[N+](=O)[O-],1.779,103.199,137.2426679,0.751945452
SIYWIH,Nc1cc(N)c([N+](=O)[O-])cc1[N+](=O)[O-],1.7383,142.223,189.1867946,0.751759658
VEGHEU,O=C1CN([N+](=O)[O-])C(=O)CN1[N+](=O)[O-],1.8376,138.549,184.3622806,0.751504047
ITINEE,O=C(O)c1cn(CC(Cn2cc(C(=O)O)nn2)([N+](=O)[O-])[N+](=O)[O-])nn1,1.7807,249.156,332.0328147,0.750395711
NUQPOF,O=C1c2c([N+](=O)[O-])cc([N+](=O)[O-])c(O)c2C(=O)c2c(O)c([N+](=O)[O-])cc([N+](=O)[O-])c21,1.8412,222.365,492.7301604,0.74941489
KAHHIM02,O=[N+]([O-])c1n[nH]c([N+](=O)[O-])c1[N+](=O)[O-],1.8756,134.651,179.7236345,0.749211423
CASYIG01,O=[N+]([O-])C(=C1N[C@H](O)[C@@H](O)N1)[N+](=O)[O-],1.8563,138.085,184.308202,0.749207026
XAHMIE01,O=[N+]([O-])N1CN([N+](=O)[O-])c2nonc2N([N+](=O)[O-])C1,1.8911,181.307,242.3770826,0.748036894
CURTAN,N#[N+][N-]CN1C2C3N(C[N-][N+]#N)C4C1N([N+](=O)[O-])C(C(N2[N+](=O)[O-])N3[N+](=O)[O-])N4[N+](=O)[O-],1.8533,306.999,410.4564071,0.747945445
ELIGUD,O=[N+]([O-])OCn1nc([N+](=O)[O-])nc1-c1nc([N+](=O)[O-])nn1CO[N+](=O)[O-],1.8578,250.74,336.0987059,0.74603084
DILFUZ,O=[N+]([O-])N(CCN(CC([N+](=O)[O-])([N+](=O)[O-])[N+](=O)[O-])[N+](=O)[O-])CC([N+](=O)[O-])([N+](=O)[O-])[N+](=O)[O-],1.875,314.307,421.5815916,0.745542515
TNIOAN,Nc1c([N+](=O)[O-])cc([N+](=O)[O-])cc1[N+](=O)[O-],1.7725,158.814,213.618351,0.743447364
CADBOB,O=[N+]([O-])c1nonc1O,1.8181,88.895,119.6486052,0.74296729
NOEURA,O=C(NCC([N+](=O)[O-])([N+](=O)[O-])[N+](=O)[O-])NCC([N+](=O)[O-])([N+](=O)[O-])[N+](=O)[O-],1.8605,255.805,344.5313737,0.742472296
IZAXAL,N/C(=N\[N+](=O)[O-])NNC=O,1.7334,104.548,140.8638285,0.742191953
PICNEX,N#[N+][N-]c1c([N+](=O)[O-])cc([N+](=O)[O-])cc1[N+](=O)[O-],1.7733,176.43,237.8606822,0.74173671
LAPVUW,O=[N+]([O-])Nc1c([N+](=O)[O-])cc(-n2cnnn2)cc1[N+](=O)[O-],1.7862,204.003,275.2098006,0.741263573
GEYNON,O=C1OCOc2c1cc([N+](=O)[O-])cc2[N+](=O)[O-],1.7697,166.908,225.2060083,0.741134756
GISDIY,Nc1nc(-c2c([N+](=O)[O-])c(N)c([N+](=O)[O-])c(N)c2[N+](=O)[O-])nc(N)c1[N+](=O)[O-],1.802,270.443,364.9750514,0.740990375
PIGSEF,Nc1c([N+](=O)[O-])c(N)c([N+](=O)[O-])c(-n2cc([N+](=O)[O-])nc2[N+](=O)[O-])c1[N+](=O)[O-],1.8413,266.626,359.8576361,0.740920779
RAQRIL,O=[N+]([O-])c1cc2c([n-]o[n+]2=O)c2c1[n-]o[n+]2=O,1.839,159.709,215.8081832,0.740050714
DAJXUH,O=C(O)c1cc([N+](=O)[O-])ccc1[N+](=O)[O-],1.7222,151.278,204.4238287,0.740021362
GETFIU01,[N-]=[N+]=C1C=C([N+](=O)[O-])C=C([N+](=O)[O-])C1=O,1.7259,149.464,202.0570041,0.739712047
HASHEO,O=[N+]([O-])[C@]12C3[C@]4([N+](=O)[O-])C1[C@]1([N+](=O)[O-])C2[C@@]3([N+](=O)[O-])C41,1.8138,192.235,260.0150168,0.739322684
UZEVUS,O=[N+]([O-])C(=C1N[C@H]2OCCO[C@H]2N1)[N+](=O)[O-],1.7937,158.812,214.8257256,0.739259693
COWYET,O=C(O)c1cc(O)c([N+](=O)[O-])c(O)c1,1.7303,141.145,190.9950917,0.738998048
VUKCOW,O=C(O)c1c([N+](=O)[O-])n[nH]c1[N+](=O)[O-],1.8169,136.38,184.6204736,0.738704637
JIPSAF,O=[N+]([O-])c1nonc1Nc1nnc2nncn2n1,1.7935,170.883,231.5035969,0.738144039
PIGSUV,Nc1c([N+](=O)[O-])c(N)c([N+](=O)[O-])c(-n2cnc([N+](=O)[O-])c2[N+](=O)[O-])c1[N+](=O)[O-],1.8266,267.639,362.7536766,0.737798174
KAFXAU01,O=[N+]([O-])c1cnn(/N=N/n2ncc([N+](=O)[O-])n2)n1,1.7937,173.27,235.1762592,0.736766545
DIQRON,O=[N+]([O-])OC[C@H](O[N+](=O)[O-])[C@@H](O[N+](=O)[O-])[C@H](O[N+](=O)[O-])[C@@H](CO[N+](=O)[O-])O[N+](=O)[O-],1.868,295.89,401.8060899,0.736399988
LAMJOC,O=[N+]([O-])c1cc([N+](=O)[O-])c(N2c3nonc3-c3nonc3-c3nonc32)c([N+](=O)[O-])c1,1.8163,289.324,393.1393671,0.735932405
MOCJUK01,O=[N+]([O-])c1cc([N+](=O)[O-])c(-c2c([N+](=O)[O-])cc([N+](=O)[O-])cc2[N+](=O)[O-])c([N+](=O)[O-])c1,1.7917,289.064,392.9651547,0.735597028
PAWVIV,O=[N+]([O-])O[C@]12C[C@@H]3N([N+](=O)[O-])[C@H](C1)N([N+](=O)[O-])[C@H](C2)N3[N+](=O)[O-],1.8398,222.366,302.4120437,0.735308016
WOBLUU,O=[N+]([O-])Cn1cnc([N+](=O)[O-])n1,1.7574,120.127,163.4884073,0.73477381
DNPHOL,O=[N+]([O-])c1cccc([N+](=O)[O-])c1O,1.7049,131.497,179.230666,0.733674672
GIBVOE,O=C1Nc2c([N+](=O)[O-])ccc3ccc([N+](=O)[O-])c(c23)N1,1.7137,194.821,265.5427206,0.733671025
COYLAF03,O=[N+]([O-])C(CNc1nonc1NCC([N+](=O)[O-])([N+](=O)[O-])[N+](=O)[O-])([N+](=O)[O-])[N+](=O)[O-],1.8328,283.166,385.9858306,0.733617604
KAFXEY01,O=[N+]([O-])c1cn(/N=N/n2cc([N+](=O)[O-])nn2)nn1,1.7757,174.27,237.5602051,0.733582461
KUBPIG,O=[N+]([O-])C(=C1NCCN1[N+](=O)[O-])[N+](=O)[O-],1.7996,148.095,202.1067048,0.732756492
DEKZID,CC(=O)c1c(O)c([N+](=O)[O-])c(O)c([N+](=O)[O-])c1O,1.7512,179.229,244.663897,0.732551889
FABHUL,Cn1c([N+](=O)[O-])c([N+](=O)[O-])c([N+](=O)[O-])c1[N+](=O)[O-],1.8085,175.484,239.6536068,0.732240179
RIGJIA,O=[N+]([O-])N1CN([N+](=O)[O-])[C@H]2[C@@H]1[C@H]1[C@@H]2N([N+](=O)[O-])CN1[N+](=O)[O-],1.83,212.613,290.4203461,0.732087138
NUSTUT,Nc1nc(-n2nc([N+](=O)[O-])cc2[N+](=O)[O-])n[nH]1,1.7696,164.665,225.250359,0.731031021
FEFXUM,Nc1nonc1-c1nonc1-c1nonc1[N+](=O)[O-],1.7665,182.791,250.0674793,0.7309667
KAVFUI01,O=[N+]([O-])c1cn([N+](=O)[O-])cn1,1.7524,109.376,149.7303288,0.730486608
PIGSIJ,O=[N+]([O-])c1cc([N+](=O)[O-])c(-n2cnc([N+](=O)[O-])c2[N+](=O)[O-])c([N+](=O)[O-])c1,1.8011,248.466,340.2096873,0.730331937
DNEDAM,O=[N+]([O-])NCCN[N+](=O)[O-],1.7081,106.301,145.8665213,0.728755296
ECUXOQ,O=[N+]([O-])N1[C@@H]2N[C@@H]3[C@@H]4N([N+](=O)[O-])[C@H]1[C@H](N([N+](=O)[O-])[C@H]2N3[N+](=O)[O-])N4[N+](=O)[O-],1.9071,249.163,342.2360985,0.728044181
NHANTQ,O=C1c2c(O)ccc([N+](=O)[O-])c2C(=O)c2c(O)ccc([N+](=O)[O-])c21,1.7134,232.76,319.8427785,0.727732548
KIRCAP,COC(=O)[C@H]1ON2O[C@H]1c1cc([N+](=O)[O-])cc([N+](=O)[O-])c1C2([N+](=O)[O-])[N+](=O)[O-],1.7963,269.714,370.7152178,0.727550386
DUKLAX,O=[N+]([O-])c1ccc(N2CC([N+](=O)[O-])([N+](=O)[O-])C2)c([N+](=O)[O-])c1,1.7234,219.401,301.622795,0.727401919
SAWBOH,NC(=O)c1c([N+](=O)[O-])cc([N+](=O)[O-])cc1[N+](=O)[O-],1.7366,177.808,244.8041473,0.726327564
HASHAK,O=[N+]([O-])[C@]12C3[C@]4([N+](=O)[O-])[C@H]1C1[C@H]2[C@@]3([N+](=O)[O-])[C@@H]14,1.7377,165.843,228.4128541,0.726066843
VECGIV02,O=[N+]([O-])c1n[nH]c(-c2nc([N+](=O)[O-])n[nH]2)n1,1.7772,153.102,211.191001,0.724945662
OWUYOW02,O=[N+]([O-])N(CCN(c1nonc1-c1ncon1)[N+](=O)[O-])c1nonc1-c1ncon1,1.7494,290.302,400.6201346,0.724631577
BUGKOE,O=[N+]([O-])Nn1cc([N+](=O)[O-])nc1[N+](=O)[O-],1.8035,145.436,200.7301069,0.72453506
WACGOW,O=[N+]([O-])c1cc([N+](=O)[O-])c(Cc2c([N+](=O)[O-])cc([N+](=O)[O-])cc2[N+](=O)[O-])c([N+](=O)[O-])c1,1.7418,302.457,417.5852888,0.724299941
PUTCOW,COc1c([N+](=O)[O-])cc([N+](=O)[O-])c2nn(-c3cc([N+](=O)[O-])cc([N+](=O)[O-])c3N)nc12,1.7234,292.928,404.7352841,0.723752071
KIBMIU,Cn1nnnc1/N=C(\N)C([N+](=O)[O-])([N+](=O)[O-])[N+](=O)[O-],1.7743,186.292,257.4115114,0.723712778
LUFXUH,O=[N+]([O-])c1ccc(N2c3nonc3N(c3ccc([N+](=O)[O-])cc3[N+](=O)[O-])c3nonc32)c([N+](=O)[O-])c1,1.7332,345.287,477.1655691,0.723620945
LUJXOG,O=[N+]([O-])OCc1nc(-c2nonc2/N=N/c2nonc2-c2noc(CO[N+](=O)[O-])n2)no1,1.7726,306.378,423.4570605,0.723516098
FIPZIN,N#[N+][N-]CN(CN(CN(C[N-][N+]#N)[N+](=O)[O-])[N+](=O)[O-])[N+](=O)[O-],1.7145,224.213,310.0067317,0.723252036
LOLJAX02,O=C(C(=O)N1CC([N+](=O)[O-])([N+](=O)[O-])C1)N1CC([N+](=O)[O-])([N+](=O)[O-])C1,1.7483,238.862,330.5719467,0.722571901
PABBOJ,O=[N+]([O-])c1cc([N+](=O)[O-])c(-n2nnc3cc([N+](=O)[O-])cc([N+](=O)[O-])c32)c([N+](=O)[O-])c1,1.755,287.155,397.4133144,0.72256009
ELIGEN01,O=[N+]([O-])OCn1nc([N+](=O)[O-])c2c1c([N+](=O)[O-])nn2CO[N+](=O)[O-],1.8264,228.592,316.4132538,0.722447613
MTNANL,CN(c1c([N+](=O)[O-])cc([N+](=O)[O-])cc1[N+](=O)[O-])[N+](=O)[O-],1.7307,198.943,275.3886499,0.722408131
MEWSAK,O=[N+]([O-])OCC(CO[N+](=O)[O-])[N+](=O)[O-],1.7595,143.716,199.1471026,0.721657499
FACQAE,Cc1c(/C=N/n2nn[nH]/c2=N\[N+](=O)[O-])[n-]o[n+]1=O,1.7108,178.487,247.5626223,0.720977175
IMIVOP,N/C(=N\[N+](=O)[O-])n1nc(N)nc1N,1.7125,129.926,180.4224895,0.720120869
DUSGEE,O=Cc1cccc([N+](=O)[O-])c1O,1.5975,124.963,173.6190904,0.7197538
ISAJER,N#[N+][N-]C(=O)c1ccc([N+](=O)[O-])cc1,1.5816,145.109,201.6200439,0.719715149
RAMVUW,O=[N+]([O-])c1c[nH]nn1,1.688,80.721,112.1670128,0.719650082
DNOPHL03,O=[N+]([O-])c1ccc(O)c([N+](=O)[O-])c1,1.6709,131.528,182.8777081,0.719212863
MAPPUQ,CC(=O)O[C@H]1NC(=C([N+](=O)[O-])[N+](=O)[O-])N[C@@H]1OC(C)=O,1.682,205.946,286.3595736,0.719186711
CEDZUG,O=[N+]([O-])[C@]12[C@@H]3[C@@H]4[C@H]1[C@@H]1[C@H]2[C@H]3[C@]41[N+](=O)[O-],1.6618,139.436,193.8926439,0.719140227
VOPXED,O=[N+]([O-])/C=C/c1ccc2c(c1)OCO2,1.5762,146.196,203.3739914,0.718852981
OKANOG,N=C(N)Nc1ncc([N+](=O)[O-])c(N)c1[N+](=O)[O-],1.6752,171.77,238.9550581,0.7188381
EIMTNB,O=[N+]([O-])c1cc([N+](=O)[O-])c(N2CC2)c([N+](=O)[O-])c1,1.6628,182.248,253.6926362,0.718381119
BAQLUD,O=C(O)c1ccc([N+](=O)[O-])cc1[N+](=O)[O-],1.681,150.427,209.4340973,0.718254582
MNQUON10,COc1cc([N+](=O)[O-])c2[nH]cccc-2c1=O,1.5933,164.719,229.3431144,0.718220821
SAGZOR,O=C(O)c1ccc([N+](=O)[O-])c(C(=O)O)c1,1.6406,153.307,213.584059,0.717782969
SONDEE01,Cn1c([N+](=O)[O-])cnc1COC(N)=O,1.6233,146.831,204.6513852,0.717468879
JOKQOR,CC(=O)Nc1ccc(-c2nnn[nH]2)cc1[N+](=O)[O-],1.6065,183.913,256.4195754,0.717234633
SITPOC,Nc1c(-n2cncn2)cc([N+](=O)[O-])cc1[N+](=O)[O-],1.655,179.897,250.8911266,0.717032134
QIYWED,O=[N+]([O-])c1cc2ccccc2[n+]([O-])c1,1.5677,144.272,201.299254,0.716704097
FENPET,O=C(Nc1ccc([N+](=O)[O-])cc1[N+](=O)[O-])c1ccc(C(=O)Nc2ccc([N+](=O)[O-])cc2[N+](=O)[O-])cc1,1.6327,361.44,504.5383177,0.716377701
HAXJOH,O=C(O)c1ccc(NC(=O)c2ccc(NC(=O)c3ccc(NC(=O)c4ccc([N+](=O)[O-])cc4)cc3)cc2)cc1,1.5293,407.581,569.1333225,0.716143272
AHOKEQ,O=C1OCC(c2cccc([N+](=O)[O-])c2)=C1O,1.5993,164.345,229.5044336,0.716086384
TALBIU,O=C(N[N+](=O)[O-])OCC#CCOC(=O)N[N+](=O)[O-],1.6861,184.731,258.055884,0.71585657
GERPOJ02,O=[N+]([O-])c1cc([N+](=O)[O-])c(NCCO)cc1NCCO,1.607,211.599,295.6336462,0.715747354
HADCAT,Cc1c(/N=N/c2cc([N+](=O)[O-])cc([N+](=O)[O-])c2C)cc([N+](=O)[O-])cc1[N+](=O)[O-],1.6325,283.985,396.7699923,0.715742132
SOJGED01,O=[N+]([O-])c1ccc(/C=N\O)o1,1.6268,113.974,159.2586718,0.715653338
ELOXOS,O=c1ccc([N+](=O)[O-])c[nH]1,1.6068,103.521,144.7105128,0.715366133
YIDLEC01,O=[N+]([O-])/C=C/c1ccc(O)c([N+](=O)[O-])c1,1.6027,155.626,217.6152437,0.715142917
TIJKEC,[NH3+]CC[N-][N+](=O)[O-],1.5613,79.903,111.7353386,0.715109481
BAFGUL01,O=[N+]([O-])c1ccc(N/N=C/c2ccccc2O)c([N+](=O)[O-])c1,1.5811,226.807,317.2533915,0.714908039
IJIVIG,O=[N+]([O-])Nc1ccc[n+]([O-])c1,1.6118,114.173,159.7269828,0.714800956
TNOXYL,Cc1c([N+](=O)[O-])cc([N+](=O)[O-])c(C)c1[N+](=O)[O-],1.6331,175.191,245.0922817,0.714796071
QIXSAS,N/N=C/c1ccc([N+](=O)[O-])cc1[N+](=O)[O-],1.612,154.647,216.3713432,0.714729584
ACOWOE,O=CN1CC([N+](=O)[O-])([N+](=O)[O-])C1,1.6768,123.819,173.3319785,0.714345969
CMDNFL,N#CC(C#N)=C1c2cc([N+](=O)[O-])ccc2-c2ccc([N+](=O)[O-])cc21,1.5483,243.636,341.1066363,0.714251715
RIYQOG,COc1ccc([N+](=O)[O-])c([N+](=O)[O-])c1-c1c(OC)c([N+](=O)[O-])cc([N+](=O)[O-])c1[N+](=O)[O-],1.6861,308.798,432.3851102,0.714173529
DNITPY,O=[N+]([O-])c1cncc([N+](=O)[O-])c1,1.6536,121.212,169.7278167,0.714155183
ZZZMUC01,Cc1c([N+](=O)[O-])cc([N+](=O)[O-])cc1[N+](=O)[O-],1.6537,162.768,227.965058,0.714004161
LUHPAF,O=C1NCCN1[N+](=O)[O-],1.673,92.821,130.0618954,0.713667902
ORAWAG,COc1c([N+](=O)[O-])c(O)c([N+](=O)[O-])c(OC)c1[N+](=O)[O-],1.6932,202.289,283.4536208,0.713658197
LAPVAC,COc1c(-n2cnnn2)cc([N+](=O)[O-])cc1[N+](=O)[O-],1.6536,190.656,267.1661646,0.7136233
BIHVOE,O=[N+]([O-])c1ccc(OCCOc2ccc([N+](=O)[O-])cc2[N+](=O)[O-])c([N+](=O)[O-])c1,1.656,281.971,395.1342472,0.713608102
EBEWOA,O=C1OC(=O)c2cc3c([N+](=O)[O-])cccc3cc21,1.6045,179.482,251.5136503,0.713607392
LATWOS,O=C(C(=O)c1c([N+](=O)[O-])cc([N+](=O)[O-])c2nonc12)c1ccccc1,1.6306,248.5,348.316246,0.713432126
JABLUW01,O=[N+]([O-])n1ccc(-n2cnnn2)n1,1.6671,128.646,180.32897,0.713396189
LEWJUS,O=C1c2cc([N+](=O)[O-])ccc2-c2ccc([N+](=O)[O-])cc2[C@]1(O)C[N+](=O)[O-],1.6338,260.324,364.9284514,0.713356273
KODHUG,O=C(O)/C=C/c1cc([N+](=O)[O-])cc([N+](=O)[O-])c1,1.5999,176.219,247.0531321,0.713283812
NOGUNA02,CN(N=O)/C(N)=N/[N+](=O)[O-],1.6514,105.42,147.8583991,0.712979449
FIJHAH,O=C1c2cc([N+](=O)[O-])cc([N+](=O)[O-])c2-c2c1cc([N+](=O)[O-])cc2[N+](=O)[O-],1.6939,251.573,352.9207111,0.7128315
NIMURC10,Cc1[nH]c(=O)[nH]c(=O)c1[N+](=O)[O-],1.6593,121.955,171.1619997,0.712512124
PUQQIC,C/C(=N\Nc1ccc([N+](=O)[O-])cc1[N+](=O)[O-])c1cc2ccccc2oc1=O,1.5747,276.498,388.1542396,0.712340538
AMNPHA,Nc1ccc([N+](=O)[O-])cc1O,1.5737,115.754,162.5438397,0.712140185
EWUKAI,Nc1ccc([N+](=O)[O-])c(C(=O)O)c1,1.6029,134.289,188.5854362,0.71208574
DEKZAV,CC(=O)c1cc([N+](=O)[O-])c(O)c([N+](=O)[O-])c1O,1.6633,172.049,241.6246385,0.712050729
NPASPG,NC(=O)C[C@@H](Nc1ccc([N+](=O)[O-])cc1[N+](=O)[O-])C(=O)O,1.6299,216.214,303.6689661,0.712005586
TUBYIY01,O=[N+]([O-])C(CO)(CO)[N+](=O)[O-],1.6971,115.657,162.4518921,0.711946155
QATZOD,O=C1c2ccccc2C(=O)N1Nc1ccc([N+](=O)[O-])cc1,1.5617,214.184,300.9850056,0.7116102
NABMOS,O=[N+]([O-])N1CCN([N+](=O)[O-])C1,1.6869,113.486,159.5126001,0.711454769
ZIKKUZ,CC(=O)c1c([N+](=O)[O-])ccc(O)c1[N+](=O)[O-],1.6407,162.75,228.7640069,0.711431847
ANTZCO,CC(=O)N1CN([N+](=O)[O-])CN(C(C)=O)CN([N+](=O)[O-])C1,1.635,209.608,294.6396813,0.711404516
GARBUY,Nc1ccc([N+](=O)[O-])cc1C(=O)O,1.5998,134.382,188.9508662,0.711200762
CMNFLU10,N#CC(C#N)=C1c2cc([N+](=O)[O-])cc([N+](=O)[O-])c2-c2c1cc([N+](=O)[O-])cc2[N+](=O)[O-],1.6331,295.039,414.8795829,0.711143696
QQQFNG02,Nc1ccc([N+](=O)[O-])cc1[N+](=O)[O-],1.6265,132.866,186.8652359,0.711025779
DUQREN,O=C(O)c1ccc(NC(=O)c2ccc([N+](=O)[O-])cc2)cc1,1.5362,219.846,309.2237521,0.710960909
WINJAF,O=[N+]([O-])c1ccc(Nc2ccc([N+](=O)[O-])cc2[N+](=O)[O-])c([N+](=O)[O-])c1,1.6556,248.785,350.0835496,0.710644645
XAVMOW,O=C(NO)c1ccc([N+](=O)[O-])cc1,1.5829,135.664,190.9682202,0.710400924
RINWUG,O=C(N/N=C/c1ccc([N+](=O)[O-])o1)c1ccncc1,1.5528,197.556,278.1083163,0.710356319
CIFROY,O=[N+]([O-])c1nc[nH]n1,1.6681,80.627,113.5051362,0.710337899
XIQXOL,O=c1c(-c2ccc(O)c([N+](=O)[O-])c2)coc2cc(O)ccc12,1.5911,221.699,312.1053261,0.710333921
CUZDEG,Nc1c([N+](=O)[O-])cccc1[N+](=O)[O-],1.6279,132.582,186.704531,0.710116671
YUYCOK,O=[N+]([O-])c1ccc(/C=N/O)o1,1.6133,114.035,160.591339,0.710094334
FUGVEJ,CC(=O)N1CN([N+](=O)[O-])CN([N+](=O)[O-])C1,1.6707,154.604,217.7360674,0.710052321
LECVAQ,O=C(c1ccco1)N1N=C(c2ccco2)Oc2cc([N+](=O)[O-])cc([N+](=O)[O-])c21,1.6454,275.193,387.5818734,0.710025465
MNHCHA,O=C(O)[C@]1(O)C[C@@H]2C[C@]2([N+](=O)[O-])[C@H]2C[C@]21[N+](=O)[O-],1.6539,183.891,259.0941643,0.70974582
VENLOQ,O=C(Nc1ccc([N+](=O)[O-])cc1)C(=O)Nc1ccc([N+](=O)[O-])cc1,1.5774,246.6,347.4690583,0.70970348
BAYXIJ,COC(=O)C(=O)Nc1ccc([N+](=O)[O-])cc1[N+](=O)[O-],1.6593,191.051,269.2391734,0.70959585
LABVEP,O=C(O)/C=C/c1ccc([N+](=O)[O-])cc1,1.5265,149.01,209.9954703,0.709586735
FIFLIP,O=C1c2cc([N+](=O)[O-])c3ccccc3c2-c2cccc3cccc1c23,1.5147,252.865,356.3858896,0.709525846
BATGIN,O=[N+]([O-])c1cncn1[C@@H]1O[C@H](CO)[C@@H](O)[C@H](O)[C@H]1O,1.6504,196.364,276.7754035,0.709470558
SOWXUX,O=[N+]([O-])c1cc([N+](=O)[O-])c2nonc2c1Nc1ccccc1,1.6242,218.328,307.7914415,0.709337462
MAZXEQ,O=C1c2cc([N+](=O)[O-])ccc2[C@@H]2C[C@H]1c1ccc([N+](=O)[O-])cc1C2=O,1.5876,250.807,353.5980619,0.709299702
ROKHUX,Cn1cc([N+](=O)[O-])nc1[N+](=O)[O-],1.6567,122.273,172.4282107,0.709124102
LEQTAC,O=C(N/N=C/c1ccc([N+](=O)[O-])o1)c1ccc(O)cc1,1.5636,207.115,292.1175738,0.709012461
RUXFAT,O=C1C[C@@H](n2cc([N+](=O)[O-])c([N+](=O)[O-])n2)[C@@H]2CO[C@H]1O2,1.6899,197.883,279.1145389,0.70896701
MNPMAL01,O=C(O)/C=C\C(=O)Nc1cccc([N+](=O)[O-])c1,1.5599,178.093,251.2811972,0.708739858
ROFHAV,O=C1C[C@H](n2cc([N+](=O)[O-])c([N+](=O)[O-])n2)[C@H]2CO[C@@H]1O2,1.6899,197.78,279.1145389,0.708597986
TNBENZ10,O=[N+]([O-])c1cc([N+](=O)[O-])cc([N+](=O)[O-])c1,1.6755,149.56,211.1079846,0.708452597
ZITHUH,COn1c(=O)[nH]c2ccc([N+](=O)[O-])cc21,1.604,153.315,216.4201338,0.708413757
AZAXEG,O=C1CN(/N=C/c2ccc([N+](=O)[O-])o2)C(=O)N1,1.6407,170.66,240.9209242,0.708365206
SILTOW01,O=C(Nc1cccc([N+](=O)[O-])c1)Nc1cccc([N+](=O)[O-])c1,1.5662,226.868,320.2715728,0.708361339
GUTZAY,O=[N+]([O-])c1cccc(-c2nnc3c4ccccc4cnn23)c1,1.5471,221.296,312.4298249,0.708306257
ADEWOW,O=C(N/N=C/c1cc([N+](=O)[O-])ccc1O)c1ccccc1O,1.5514,228.258,322.2615876,0.708300365
UGIXUF,O=Cc1cc(O)ccc1[N+](=O)[O-],1.573,124.862,176.3232656,0.708142511
JOKTIM,O=[N+]([O-])C1=CC(=[N+]([O-])[O-])[C@@]2(OCc3cccc[n+]32)C([N+](=O)[O-])=C1,1.6512,227.918,321.8612277,0.708125056
ACEMUR,O=[N+]([O-])c1ccc(N/N=C/c2ccc3c(c2)OCO3)c([N+](=O)[O-])c1,1.5955,243.256,343.5272282,0.70811272
XAZGAI,O=C1Cc2cc([N+](=O)[O-])ccc2O1,1.5941,132.055,186.4899923,0.708107702
COWBEV,N#[N+][N-]CN1CN([N+](=O)[O-])CN([N+](=O)[O-])CN([N+](=O)[O-])C1,1.694,212.383,300.0436367,0.707840374
FASGAH,O=C1c2ccccc2-c2cc([N+](=O)[O-])cc3c([N+](=O)[O-])c4ccccc4c1c23,1.5613,278.598,393.5950349,0.707829051
YOHMUG,O=[N+]([O-])c1ccccc1-c1conc1[N+](=O)[O-],1.6106,171.501,242.3190496,0.707748731
LOFSII,O=C1C(O)=CC=C/C1=C\Nc1ccc([N+](=O)[O-])cc1,1.5167,199.952,282.5484095,0.707673423
UJEMEB,NC(=O)c1cc([N+](=O)[O-])cc([N+](=O)[O-])c1,1.6222,152.798,216.0181614,0.707338675
JASLEV,CC(=O)NC(N)=C([N+](=O)[O-])[N+](=O)[O-],1.6591,134.521,190.2056298,0.707239844
DEKYUO,CC(=O)c1cc([N+](=O)[O-])cc([N+](=O)[O-])c1O,1.6161,164.22,232.2462139,0.707094412