name,smiles,Density,Vint,Veff,pc
WAJMED,COc1cc(C(=O)/C=C/c2ccc([N+](=O)[O-])cc2)ccc1O,1.4167,233.796,350.5690732,0.666904236
BABBUB,O=[N+]([O-])N=C1NCCN1,1.527,94.318,141.427305,0.666900922
ROMVUL,O=CC(C=O)=C1N[C@H](c2cccc([N+](=O)[O-])c2)c2c(ccc3ccccc23)O1,1.4411,287.467,431.0695337,0.666869211
XAVLEL,Cn1nc(-c2ccccc2)c2nn(-c3ccc([N+](=O)[O-])cc3)nc2/c1=N\c1ccccn1,1.4357,327.152,490.580383,0.666867269
NUSTED,Cc1ccc(-n2nc([N+](=O)[O-])cc2[N+](=O)[O-])cc1,1.4815,185.4,278.0421151,0.666805458
JOGPED,O=C(/C=C/c1c2ccccc2cc2ccccc12)c1ccc([N+](=O)[O-])cc1,1.3742,284.518,426.696612,0.666792264
KACNEJ,COc1ccc2cc(-c3ccc([N+](=O)[O-])cc3)oc2c1,1.4282,208.602,312.8523051,0.666774694
YUBMAK,CC(=O)CC(O)c1cc([N+](=O)[O-])ccc1O,1.4486,172.016,258.0013927,0.666725083
HUFPOP,Cc1nn2c(ccc3c4ccccc4n(C)c32)c1[N+](=O)[O-],1.4406,215.26,322.8706513,0.666706618
WUXJOO,COc1ccc(/C=C(\c2ccc([N+](=O)[O-])cc2[N+](=O)[O-])[N+](=O)[O-])cc1[N+](=O)[O-],1.5196,284.169,426.2360872,0.666693902
YUDBAC,COc1cc2c(cc1OC)C1(O)c3c(cccc3[N+](=O)[O-])C(=O)N1CC2,1.4723,267.76,401.644399,0.666659365
HECGAX,Cn1c([N+](=O)[O-])cnc1-c1ccc(N)cc1,1.4307,168.743,253.1238357,0.666642079
QIRQOZ,CC(=O)c1nnn(-c2ccc([N+](=O)[O-])cc2)c1C,1.4337,189.972,285.0196184,0.66652254
DABRIK,O=C(Nc1ccc([N+](=O)[O-])cc1)Oc1ccccc1,1.4429,197.95,296.9999118,0.666498514
ZZZJPA01,O=[N+]([O-])c1ccccc1-c1ccccc1[N+](=O)[O-],1.4457,186.822,280.3256445,0.666446341
WUVWAL01,O=[N+]([O-])c1ccc(N/N=C/c2ccccc2O)cc1,1.4212,200.187,300.3849679,0.666434813
BUFMOF,COc1cc(OC)c(C(=O)/C=C/c2cc3c(cc2[N+](=O)[O-])OCO3)c(OC)c1,1.4558,294.244,441.5514828,0.66638662
HUMXIX,CN(C)c1ccc(/C=C2\N=C(c3cc([N+](=O)[O-])cc([N+](=O)[O-])c3)OC2=O)cc1,1.4581,289.977,435.1559355,0.666374916
BASCAC,O=[N+]([O-])c1ccc(-c2ncncc2-c2ccccc2)o1,1.4386,205.417,308.2768858,0.666339286
DUFKIY,COC12OC(C(=O)c3ccccc31)C1(O2)c2ccccc2C2(OC)OC1C(=O)N2c1ccc([N+](=O)[O-])cc1,1.4929,382.5,574.0931686,0.666268162
TAFCAE,O=[N+]([O-])c1cc([N+](=O)[O-])c(Nc2ccc(N(c3ccccc3)c3ccccc3)cc2)c([N+](=O)[O-])c1,1.4506,359.31,539.3205274,0.666227191
XOLGUD,COC(=O)C/C(=N/Nc1ccc([N+](=O)[O-])cc1[N+](=O)[O-])C(=O)OC,1.5058,249.847,375.0250972,0.66621408
UPUWUY,O=c1oc2ccccc2c2c1C1CC(O2)N(Cc2ccc([N+](=O)[O-])cc2)c2c1ccc1cccnc21,1.4522,363.447,545.6040359,0.666136935
LULYEW,O=C1C=CC([N+](=O)[O-])=C/C1=C/NCc1ccccc1,1.3939,203.218,305.0824349,0.66610849
PNPAUR,O=C(O)CNC(=O)Cc1ccc([N+](=O)[O-])cc1,1.4563,180.815,271.4555571,0.666094302
FICDOK,COc1c([N+](=O)[O-])ncn1C,1.4727,117.953,177.0863988,0.666075999
AWUSAM,O=[N+]([O-])c1ccc(C(c2ccccc2)(c2ccccc2)c2ccc([N+](=O)[O-])cc2)cc1,1.3842,327.719,492.0216202,0.666066259
JERHET,O=[N+]([O-])CC(O)C(O)C(O)CO,1.509,132.708,199.2484909,0.666042686
LEWGEA,CCN1C(=O)c2ccc([N+](=O)[O-])cc2C1=O,1.4517,167.642,251.7134285,0.666003403
HIHHAH,CC(=O)c1cccc([N+](=O)[O-])c1,1.4063,129.789,194.887101,0.665970192
YICHIC,O=C(/C=C/C=C/c1ccccc1)c1cccc([N+](=O)[O-])c1,1.3445,229.554,344.705166,0.665943022
YIKCIH,Cc1ccccc1/N=C/c1cc([N+](=O)[O-])ccc1O,1.3971,202.702,304.3836561,0.665942458
VEGLUP,COC(=O)C1=C(C)N(C)C(=O)N[C@@H]1c1cccc([N+](=O)[O-])c1,1.4484,232.941,349.8004721,0.665925345
NABMIM,O=C(O)CCC([N+](=O)[O-])([N+](=O)[O-])[N+](=O)[O-],1.6201,152.217,228.5825116,0.665917086
MAPFOZ,COc1ccc(O)c(/C=N/c2ccc([N+](=O)[O-])cc2)c1,1.4213,211.684,317.8889476,0.665905504
IKASUJ,CCOC(=O)Cc1cc([N+](=O)[O-])ccc1O,1.4435,172.404,258.9129321,0.665876357
OGOXUG,NC(N)=C(c1nnn[nH]1)[N+](=O)[O-],1.5751,120.079,180.3354799,0.665864532
NIPFUP,O=C(/C=C/c1ccc([N+](=O)[O-])o1)c1ccccc1[N+](=O)[O-],1.4686,216.859,325.6954206,0.66583374
GEQHOZ,CO/C(=N/C(=O)c1ccccc1)Nc1ccccc1[N+](=O)[O-],1.4237,232.281,348.8585096,0.665831544
SABGAG,O=[N+]([O-])c1ccc(N/N=C/c2cc3c4c(c2O)CCCN4CCC3)cc1,1.4239,273.428,410.6932855,0.665771781
NUPYON,COc1cc([N+](=O)[O-])cc(/C=N/NC(=O)c2cccc(C)c2O)c1O,1.4578,261.712,393.1036899,0.665758187
DOFCUW,O=C1c2ccccc2CCC1(O)c1ccc([N+](=O)[O-])cc1,1.4208,220.271,330.86293,0.665746991
RUJSOH,COc1cc(NN=C(C(C)=O)C(C)=O)cc([N+](=O)[O-])c1,1.4381,214.544,322.2650826,0.665737654
BIVQAB,CN(C)c1ccc(C=O)c2ccc([N+](=O)[O-])cc12,1.4007,192.647,289.3747455,0.665735359
DIJSIA,O=C1OCCOC1(c1ccccc1)C(O)c1ccc([N+](=O)[O-])cc1,1.4523,250.507,376.290539,0.665727607
FUQWIA,O=[N+]([O-])c1ccc(Nc2ccccc2)c2nonc12,1.4682,192.799,289.6149287,0.665708086
NIQTUD,O=C(CCC(=O)Oc1ccc([N+](=O)[O-])cc1)Oc1ccc([N+](=O)[O-])cc1,1.4889,267.323,401.5814239,0.665675711
IVEREH,CCN/C=C1/C=C([N+](=O)[O-])C=CC1=O,1.4092,152.232,228.6909008,0.665667062
FOVYOE11,COc1ccc(/N=C/c2ccc([N+](=O)[O-])cc2)cn1,1.4042,202.37,304.0215899,0.665643516
MUDVOX,COc1ccccc1Nc1cc(Nc2ccccc2OC)c([N+](=O)[O-])cc1[N+](=O)[O-],1.4485,312.958,470.1758002,0.665619115
LOZZIL,CN(CN[N+](=O)[O-])[N+](=O)[O-],1.5613,106.219,159.5815059,0.665609711
VAZMEP,O=[N+]([O-])c1ccnc2nc[nH]c12,1.5105,120.011,180.3336023,0.665494387
QECKIU,O=C1C=C(O)C=C/C1=C/Nc1cccc([N+](=O)[O-])c1,1.4371,198.445,298.1985754,0.66547937
PAVZET,COc1ccc(C(=O)N/N=C/c2cccc([N+](=O)[O-])c2)cc1,1.4127,233.951,351.5748993,0.665437153
GOTFOM,O=[N+]([O-])c1cc(/C=N/c2ccccc2)ccc1O,1.402,190.79,286.7189854,0.665425067
RIMFAU,O=[N+]([O-])c1ccc2c(c1)C(c1c(O)ccc3ccccc13)c1c(ccc3ccccc13)O2,1.4156,327.158,491.6527463,0.665424942
ERIWIL,Cc1cc(=O)[nH]c(C)c1[N+](=O)[O-],1.4417,128.803,193.5698335,0.665408435
DOYLAG,Cn1cc(C(=O)C(=O)c2ccc([N+](=O)[O-])cc2)c2ccccc21,1.4124,241.015,362.2183244,0.665385995
BAJBUJ,COC(=O)C1(C(=O)OC)NC(=O)c2cc([N+](=O)[O-])c3ccccc3c21,1.4859,255.852,384.5167419,0.665385852
NACPON10,CC(=O)c1ccc([N+](=O)[O-])cc1,1.4028,129.989,195.3733463,0.665336406
PORFUZ,Cc1ccc2cc([N+](=O)[O-])c[n+]([O-])c2c1,1.4404,156.51,235.2480068,0.665297879
PELHUL,NCCNc1cc(NCCN)c([N+](=O)[O-])cc1[N+](=O)[O-],1.4673,213.921,321.5533,0.665273844
DIWKEB,O=[N+]([O-])c1ccc(N2COCN(c3ccc([N+](=O)[O-])cc3)COC2)cc1,1.4798,268.837,404.1043776,0.66526624
XUGNIW,COc1ccc(/N=N/c2ccc([N+](=O)[O-])cc2)cc1,1.4051,202.118,303.8268568,0.66524073
DUTQAL,O=[N+]([O-])c1ccc(N/N=C2\CCCc3ccccc32)c([N+](=O)[O-])c1,1.4479,248.804,374.0066021,0.665239594
NPHDZB,CC/C=N/Nc1ccc([N+](=O)[O-])cc1[N+](=O)[O-],1.4623,179.842,270.3544978,0.665208093
PICGEP,O=C(/C=C/c1ccc(O)cc1)c1cccc([N+](=O)[O-])c1,1.3947,213.098,320.3668619,0.665168672
PAVCIZ,CC1(OC(=O)c2cc([N+](=O)[O-])cc([N+](=O)[O-])c2)CC12CCCC2OC(=O)c1cc([N+](=O)[O-])cc([N+](=O)[O-])c1,1.5072,388.485,584.0439077,0.665164031
SEGRUR,Nc1cc([N+](=O)[O-])ccn1,1.4727,104.278,156.7778881,0.665132062
JIRTAG,O=[N+]([O-])c1ccc(/C=C/n2c3ccccc3c3ccccc32)cc1,1.3781,251.742,378.4947677,0.665113554
QIMGIC,CC(=O)C1=C(C)OC(N)=C(C#N)[C@H]1c1cccc([N+](=O)[O-])c1,1.4112,234.085,351.9485971,0.665111331
ROZKID,CC(=O)/C=C\Nc1ccc([N+](=O)[O-])cc1,1.3919,163.495,245.849858,0.665019705
GIPKAU,O=C(CCCC(=O)Nc1ccccc1[N+](=O)[O-])Nc1ccccc1[N+](=O)[O-],1.4456,284.248,427.4494038,0.664986306
CUCLES,O=[N+]([O-])c1ccc2c(c1)Cn1c(nc(-c3ccccc3)c1-c1ccccc1)O2,1.4189,287.257,431.9869571,0.664966836
RUTFET,O=[N+]([O-])c1ccc(/C=N/N=C/c2c(O)ccc3ccccc23)cc1,1.398,252.042,379.0345528,0.664957846
OTENOS,O=C(COc1ccc([N+](=O)[O-])cc1)c1ccccc1,1.4029,202.337,304.2900152,0.664947878
COVJUU,COc1ccc(C(=O)C2OC2c2ccc([N+](=O)[O-])cc2)cc1OC,1.4273,254.595,382.8814893,0.664944655
OVUZEL,COc1cc(/C=N/Nc2ccc([N+](=O)[O-])cc2)cc(OC)c1OC,1.4187,257.696,387.5749577,0.664893319
LOFCEQ,O=[N+]([O-])c1ccc2cnn(CCn3ncc4ccc([N+](=O)[O-])cc43)c2c1,1.4715,264.139,397.3387563,0.664770289
OJIRIJ,COc1ccc(-c2cnc3ccccc3n2)c([N+](=O)[O-])c1,1.4183,218.764,329.0992854,0.664735567
NNAPMP,Cc1cccc(C)c1Oc1c([N+](=O)[O-])cc([N+](=O)[O-])c2ccccc12,1.434,260.249,391.5151359,0.664722704
UZEXAA,O=[N+]([O-])N1C(C([N+](=O)[O-])([N+](=O)[O-])[N+](=O)[O-])=N[C@H]2CCCC[C@H]21,1.6,219.421,330.1023826,0.664705896
COPDOD,O=[N+]([O-])OCC1(CO[N+](=O)[O-])CC(CO[N+](=O)[O-])(CO[N+](=O)[O-])C1,1.5962,246.204,370.4101067,0.664679488
POWPEX,NC(=O)c1ccccc1/N=C/c1ccc([N+](=O)[O-])cc1,1.4059,211.245,317.8279511,0.664652052
LUQLEO,COc1ccc(C(=O)/C=C(\O)c2ccc([N+](=O)[O-])cc2)cc1,1.4122,233.746,351.6861676,0.664643712
IQUWOH,O=[N+]([O-])c1ccc(Nc2c(/N=C/c3ccccc3O)oc3ccccc23)c(O)c1,1.4412,297.981,448.3356951,0.664638134
HEXXUE,COc1ccccc1NC(=O)c1cc(C)cc([N+](=O)[O-])c1O,1.4367,232.069,349.1690019,0.664632309
MOSLUC,COc1ccc(/N=C/c2cc([N+](=O)[O-])ccc2O)cc1,1.4169,211.935,318.8761107,0.664631162
HEKVIC,CC(=O)C(=Cc1ccc(-c2cccc([N+](=O)[O-])c2)o1)C(C)=O,1.4096,234.168,352.334851,0.664617762
AZEJEU,CC(=O)n1c(-c2nc3ccc([N+](=O)[O-])cc3nc2-c2ccccc2)nc2ccccc21,1.424,317.068,477.0930497,0.664583146
EKAJAD,O=[N+]([O-])c1ccc(C2=NO[C@@H]3c4ccccc4C[C@H]23)cc1,1.4205,217.598,327.4261218,0.66457129
FEPJIT,O=[N+]([O-])c1cccc(COCc2cccc([N+](=O)[O-])c2)c1,1.4356,221.442,333.2242382,0.664543495
GEZBEV,C=CC1(c2ccccc2)COC2Oc3ccc([N+](=O)[O-])cc3C(=O)C21C#N,1.4258,280.25,421.7191086,0.664541858
WEHTEI,O=[N+]([O-])CC1OC(CO)C(OC2OC(CO)C(O)C(O)C2O)C(O)C1O,1.5557,273.174,411.0905927,0.664510463
AZIWUD,O=C(/N=C1\NCCN1c1ccc([N+](=O)[O-])cc1)Nc1ccccc1,1.4309,250.722,377.3080599,0.664502105
WUKCUD,C=C(C(=O)Nc1ccc([N+](=O)[O-])cc1)C1(O)C(=O)N(C)c2ccccc21,1.4347,271.58,408.6985459,0.66449955
GOWKOU,CCOC(=O)/C(=C/Nc1cccc([N+](=O)[O-])c1)C(=O)O,1.4588,211.822,318.8123606,0.664409622
VOKKUB,COC(=O)[C@@]1([N+](=O)[O-])[C@H]2CCC[C@@H]1[C@@H]2[N+](=O)[O-],1.5046,178.956,269.3751639,0.664337415
RESQEM,COc1ccc(-c2nc(-c3cc([N+](=O)[O-])ccc3O)[nH]c2-c2ccc(OC)cc2)cc1,1.42,324.068,487.8099866,0.664332443
RUCPIQ,COC(=O)c1c(C(=O)OC)c2c(-c3ccc(OC)cc3)c(-c3ccc([N+](=O)[O-])cc3)c3cccc1n32,1.4339,372.461,560.6676762,0.664316878
OBUJAY,COc1ccccc1/C(C)=N/Nc1ccc([N+](=O)[O-])cc1[N+](=O)[O-],1.4406,252.776,380.5068127,0.664313993
XIQYAY,N#Cc1c(-c2ccco2)cc(-c2ccccc2)c([N+](=O)[O-])c1N,1.4075,239.105,359.9402603,0.66429079
LEKHUE,Cc1nc([N+](=O)[O-])c(C)[nH]1,1.4387,108.149,162.8094698,0.664267257
OWUQEE,O=[N+]([O-])c1ccc(O)c(/C=N/c2ccccc2)c1,1.4103,189.327,285.0315659,0.664231694
RUGRER,COc1ccc(/C=C/C(=O)c2ccccc2[N+](=O)[O-])cc1,1.379,226.427,340.8919875,0.664219191
AZILOM01,O=C(N/N=C/c1ccccc1[N+](=O)[O-])c1ccco1,1.4427,198.041,298.1866523,0.664151123
NEHPOG,COc1ccc(/C(=N\Nc2ccc([N+](=O)[O-])cc2[N+](=O)[O-])[N+](=O)[O-])cc1,1.4997,265.521,399.8039253,0.664128047
MUGSEM,O=C1Cc2ccccc2[C@@H](c2ccc([N+](=O)[O-])cc2)N1,1.4122,209.354,315.239772,0.664110365
YAWXEZ,O=C1C2OCC(O2)C2C([N+](=O)[O-])C3CC(O)(C4OCC3O4)C12,1.5817,218.285,328.6971361,0.664091579
HMPNPR,COc1cc(/C=C(\C)[N+](=O)[O-])ccc1O,1.4065,163.921,246.8394328,0.664079471
ZIZVIN,Nc1ccc([N+](=O)[O-])cc1N/C(=C\C(=O)c1ccccc1)c1ccc([N+](=O)[O-])cc1,1.423,313.169,471.5871418,0.66407451
HAGSEP,Cc1nn(-c2ccccc2)c2c1c(=O)oc1ccc([N+](=O)[O-])cc12,1.4554,243.279,366.3440097,0.664072548
VOXJEA,O=[N+]([O-])OCCc1onc(-c2noc(CCO[N+](=O)[O-])c2CCO[N+](=O)[O-])c1CCO[N+](=O)[O-],1.5675,346.168,521.2985705,0.664049394
FAKVUI,O=[N+]([O-])c1ccc(Nc2ccccc2)nc1,1.4008,169.302,254.9574334,0.664040259
SUZCEX,CN(C)c1ccc(/C=C(\C#N)[N+](=O)[O-])cc1,1.3541,176.763,266.2222593,0.663967771
TAWLUZ01,O=[N+]([O-])c1ccc(-n2c3ccccc3c3ccccc32)cc1,1.3908,228.366,343.9761654,0.663900651
OMITIP,O=[N+]([O-])c1ccc(-c2cn([C@H]3C[C@H](O)[C@@H](CO)O3)nn2)cc1,1.4744,228.878,344.7529262,0.663889942
DAVXIH,CC1=C([N+](=O)[O-])[C@](C)([N+](=O)[O-])[C@](C)([N+](=O)[O-])C(=O)[C@@]1(C)O,1.5197,219.859,331.1696263,0.663886367
LIRTAI,C/C(C#Cc1ccc([N+](=O)[O-])cc1)=C1\CCOC1=O,1.3911,203.714,306.8711539,0.663842128
KUFROT,O=[N+]([O-])c1cc([N+](=O)[O-])c(NC23CC4CC(CC(C4)C2)C3)c([N+](=O)[O-])c1,1.5045,265.329,399.6948132,0.66382898
ONBZAM,NC(=O)c1ccccc1[N+](=O)[O-],1.4394,127.156,191.5537311,0.663813747
YEBQAX,COC1(OC)C(=O)C2C=CC13C(CCC3OC(=O)c1cc([N+](=O)[O-])cc([N+](=O)[O-])c1)C2,1.4815,321.511,484.3559172,0.663790796
WOJJUC01,O=[N+]([O-])c1ccccc1/C=N/N(c1ccccc1)c1ccccc1,1.3621,256.625,386.6115103,0.66378003
HIBXIZ,Cc1cc(C)c2c(c1)O/C(=C\c1ccc([N+](=O)[O-])cc1)C2=O,1.3969,232.845,350.7890692,0.663774959
URUYAK,Cn1nccc1Nc1c([N+](=O)[O-])cnn1C,1.458,167.899,252.9471063,0.663771183
MUQZEF,COc1ccc(C(=O)c2cc(C(=O)c3ccccc3)c3nc4ccc([N+](=O)[O-])cc4n3n2)cc1,1.4297,348.549,525.1292598,0.663739438
UGUHEJ,CC(=O)Nc1cccc([N+](=O)[O-])c1,1.4237,139.389,210.0139279,0.663713124
ZAMWEP,Cc1nc([N+](=O)[O-])cn1-c1ccccc1,1.4111,158.606,238.9746813,0.66369374
UZAZIH,N#CC1CC(c2ccc([N+](=O)[O-])cc2)N(c2ccccc2)O1,1.391,233.803,352.2903701,0.6636656
COVKAB,O=C(c1ccccc1)C1OC1c1ccc([N+](=O)[O-])cc1,1.4042,211.174,318.1994461,0.663652946
MIYDII,O=C(O)[C@@H]1CCCN/C(=N/[N+](=O)[O-])N1,1.5186,146.633,220.9652194,0.663602174
SOPZUS,CCc1nccn1-c1ccc([N+](=O)[O-])cc1,1.388,172.342,259.7201449,0.663568088
ZIZCES,Cc1[nH]c(=O)c(C#N)c(-c2cccc([N+](=O)[O-])c2)c1C,1.3975,212.163,319.7383303,0.663551974
AFOMAL,O=[N+]([O-])c1ccc(/C=N/N(c2ccccc2)c2ccccc2)c([N+](=O)[O-])c1,1.4174,281.494,424.2315218,0.663538623
DADQIJ,CN(C)c1ccc(/C=N/Nc2ccc([N+](=O)[O-])cc2[N+](=O)[O-])cc1,1.4273,254.062,382.9076283,0.663507283
GILYUV,O=[N+]([O-])[C@H]1[C@H]2[C@H]3[C@@H]4[C@@H]5[C@H]3[C@@H]3[C@H]2[C@@H]([C@H]5[C@@H]3[N+](=O)[O-])[C@@H]41,1.5468,176.706,266.3312394,0.663482062
MNIMET,Cc1ncc([N+](=O)[O-])n1CCO,1.4484,130.126,196.1264347,0.663480169
MEPQAA,O=[N+]([O-])c1ccc(NCCc2ccccn2)c2nonc12,1.4508,216.497,326.3124662,0.663465305
MATDET,O=c1oc2ccccc2c(O)c1C(c1cccc([N+](=O)[O-])c1)c1c(O)c2ccccc2oc1=O,1.476,341.179,514.2457047,0.663455226
FOVVAO,C=CCOc1ccc([N+](=O)[O-])cc1C(=O)O,1.4434,170.239,256.6119087,0.663410365
HOBSAU,O=C1C(c2ccccc2[N+](=O)[O-])=C(c2ccccc2[N+](=O)[O-])C(=O)N1Cc1ccccc1,1.4343,329.566,496.7977126,0.663380671
GEDWIV,CC1(C)C(=O)[C@](C)([N+](=O)[O-])C(C#N)=C(C#N)[C@@]1(C)[N+](=O)[O-],1.4346,224.262,338.0937724,0.663313017
ZUHMUK,CN(C)c1ccc([N+](=O)[O-])cc1[N+](=O)[O-],1.4619,159.021,239.7462776,0.663288713
HECFOK,Cn1c([N+](=O)[O-])cnc1-c1ccccc1,1.4033,159.39,240.3029806,0.663287653
ZIMZEC,O=C(c1ccc([N+](=O)[O-])cc1)N1c2ccccc2C(=O)C1(c1ccccc1)c1ccccc1,1.3931,343.241,517.4867035,0.663284675
FUYHUC,COc1ccc2c(c1OC)C(OC(=O)c1cc([N+](=O)[O-])cc([N+](=O)[O-])c1)C2,1.4759,279.154,420.8882516,0.663249684
DOJHAM,CC(C)N(O)C(=O)c1cc([N+](=O)[O-])cc([N+](=O)[O-])c1,1.4783,200.46,302.2451343,0.663236483
PAGPOF,CC(C)(C)Nc1c([N+](=O)[O-])c(N)c([N+](=O)[O-])c(N)c1[N+](=O)[O-],1.5236,227.043,342.3406924,0.663207749
BIHVIY,COC(=O)c1cc([N+](=O)[O-])c(/C=C/c2ccc(OC)cc2)c([N+](=O)[O-])c1,1.4416,273.55,412.4776743,0.663187409
LANTIF,C/C(=N\N=C(/C)c1cccc([N+](=O)[O-])c1)c1cccc([N+](=O)[O-])c1,1.4054,255.509,385.3167491,0.66311418
HEDFUU,COC(=O)[C@]1(c2ccc([N+](=O)[O-])cc2)N=CN2[C@H]1CC[C@H]2C,1.4327,232.969,351.3395946,0.663087803
XAKMAY,CN(C)CCNc1ccc([N+](=O)[O-])cc1[N+](=O)[O-],1.442,194.025,292.6220244,0.663056721
BOMMAR,O=C1CC2CC1c1ccc([N+](=O)[O-])cc12,1.4327,156.04,235.3587761,0.662987812
POBGOD,CC12CC3(C#N)CC1CC(O2)/C3=N\Nc1ccc([N+](=O)[O-])cc1[N+](=O)[O-],1.4741,266.705,402.2877779,0.662970676
ALINEQ,CCOC(=O)C1=C(C)OC(N)=C(C#N)C12C(=O)Nc1ccc([N+](=O)[O-])cc12,1.4692,277.32,418.3049751,0.662961276
SOPZIG,Cc1nccn1-c1ccc([N+](=O)[O-])cc1,1.4036,159.265,240.2516192,0.662909164
NOGRIM,CC(C)(C)Nc1c(-c2cccc([N+](=O)[O-])c2)nc2c(C(=O)O)cccn12,1.4127,275.917,416.2758803,0.662822453
BIHWUL,COC(=O)Cc1ccccc1OCc1nc(-c2ccc([N+](=O)[O-])cc2)no1,1.4385,282.402,426.0833917,0.662785749
EMEDUW,O=c1oc2ccccc2c(Nc2ccccc2)c1[N+](=O)[O-],1.445,214.827,324.1491853,0.662741138
LEBGEE,CC(C)=NNc1ccc([N+](=O)[O-])cc1[N+](=O)[O-],1.4543,180.157,271.8416984,0.662727613
SUQGIV,COC(=O)c1cc2ccccc2c(NC(=O)c2cc3ccccc3c([N+](=O)[O-])c2OC)c1OC,1.4266,354.907,535.6000147,0.662634411
TENJAZ,COC(=O)C(CCC(=O)/C=C(\O)c1ccc([N+](=O)[O-])cc1)C(=O)OC,1.4238,271.304,409.4880241,0.662544407
WAFBAI,N#Cc1ccc(Nc2ccccc2)c([N+](=O)[O-])c1,1.3793,190.691,287.8262689,0.662521182
WAMGIA,O=C(OC(=O)C(c1ccccc1)(c1ccccc1)c1ccccc1)c1cc([N+](=O)[O-])cc([N+](=O)[O-])c1,1.4201,373.501,563.7590256,0.662518883
VOBVOX,O=C(c1cccc([N+](=O)[O-])c1)N1CC(=O)N2CCc3ccccc3C2C1,1.4286,270.401,408.1429631,0.662515404
BUFDUC,CCOc1cc(/C=N/Nc2ccccc2[N+](=O)[O-])ccc1O,1.4104,234.864,354.5214468,0.662481782
QUZBET,O=C(N/N=C/c1ccc(O)cc1)c1ccccc1[N+](=O)[O-],1.4274,219.711,331.6487822,0.662480949
RAPLAY,O=[N+]([O-])c1ccc(O)cc1/C=N/c1cccc2ccccc12,1.4014,229.29,346.1081818,0.662480727
FASRUP,Cc1ccccc1/C=C/C(=O)c1ccc([N+](=O)[O-])cc1,1.3512,217.455,328.2481465,0.662471372
XAZQAR,O=[N+]([O-])c1ccc2c(c1)NCCC2,1.414,138.541,209.1301713,0.662462997
AXUHAE,CCN(CCN1C(=O)C(C#N)=C(C)/C(=N/Nc2ccc(OC)cc2[N+](=O)[O-])C1=O)C(C)=O,1.4219,342.071,516.3872515,0.662431148
KAWTOR,O=[N+]([O-])c1cccc(CN(O)c2cccc(CO)c2)c1,1.4012,215.169,324.8378173,0.662389009
GAJHAE,O=C(CC(c1cccc([N+](=O)[O-])c1)n1cncn1)c1ccccc1,1.3961,253.774,383.1317268,0.662367489
LIQKEC,O=C(N/N=C/c1cccc([N+](=O)[O-])c1)c1nc[nH]n1,1.4642,195.341,294.9496296,0.662285965
FAWWIJ,Cc1c([N+](=O)[O-])ccc(N(C)C)c1[N+](=O)[O-],1.4429,171.533,259.0335238,0.662203862
CUWGEI,COc1ccc(N2C=CC=C(C=O)C2c2cccc([N+](=O)[O-])c2)cc1,1.3895,265.998,401.6883326,0.662199965
QABGEI,O=[N+]([O-])c1ccc2c(c1)cc(C/C=C/c1ccccc1)n2-c1ccccn1,1.3609,286.952,433.3399417,0.662186825
NINBIY,O=C(OC1C2CC=CCC1(O)C13CCCCC1CC2C3=O)c1ccc([N+](=O)[O-])cc1,1.4329,315.522,476.5063104,0.662157023
ESAXIH,COC(=O)c1coc(-c2ccccc2[N+](=O)[O-])c1C(=O)OC,1.4609,229.595,346.7533219,0.662127759
LOZZEH,CN(CN1C(=O)c2ccccc2C1=O)[N+](=O)[O-],1.4604,176.966,267.2825822,0.662093274
IGAGON,CC(C)(/N=N/c1ccc([N+](=O)[O-])cc1[N+](=O)[O-])[N+](=O)[O-],1.511,205.958,311.0798167,0.662074455
BIVVOU,C=C[C@]1(C)Oc2ccccc2C(=O)N1c1ccc([N+](=O)[O-])cc1,1.4062,242.44,366.1956689,0.66205043
ISUQES,Cc1nc([N+](=O)[O-])c(C#N)n1-c1ccccc1,1.4011,178.954,270.3049626,0.662044819
YIFRAH,O=[N+]([O-])c1ccccc1/C=C/C=N/c1cccc2ccccc12,1.351,245.838,371.3371127,0.662034555
SAGLOD,CCOC(=O)c1ccccc1NC(=O)c1cc([N+](=O)[O-])cc([N+](=O)[O-])c1,1.4616,270.086,407.9642349,0.662033524
VARCUO,CCN(CC)c1ccc(/C=N/c2cc([N+](=O)[O-])cc([N+](=O)[O-])c2)c(O)c1,1.4135,278.529,420.7335629,0.662008037
HABPIJ,COC(=O)C1=C(C)NC(C)=C(C(=O)OCCO[N+](=O)[O-])C1c1cccc([N+](=O)[O-])c1,1.466,315.77,477.011461,0.661975709
NHMENT,O=[N+]([O-])[C@@]12C[C@@H](CO)[C@@H](N1)[C@H]1C[C@@]1([N+](=O)[O-])C2,1.5074,177.266,267.7907758,0.66195708
QOLXOE,CN(c1ccccc1)c1cc(O[N-][N+](=O)N(C)C)c([N+](=O)[O-])cc1[N+](=O)[O-],1.462,282.788,427.2048341,0.661949438
LILJOF,COc1cc(/C=C/c2ccc([N+](=O)[O-])cc2[N+](=O)[O-])cc(OC)c1OC,1.4302,276.759,418.105862,0.66193523
LABLOP,Cn1cnc([N+](=O)[O-])c1NCc1ccccc1,1.401,182.05,275.1025411,0.661753247
XEXYOO,CO[C@H]1N([N+](=O)[O-])[C@H](OC)N([N+](=O)[O-])[C@@H](OC)N1[N+](=O)[O-],1.6049,213.678,322.8972247,0.661752358
NERYOZ,O=[N+]([O-])c1ccc(NN=C(c2ccccc2)c2ccccc2)c([N+](=O)[O-])c1,1.4146,281.291,425.071228,0.66175027
CABYUA,CC(=O)N1CC2(CN(C(C)=O)CC([N+](=O)[O-])([N+](=O)[O-])C1)OCCO2,1.5078,252.244,381.1873968,0.661732266
KIBGEK,CC(=O)C1C(c2ccc([N+](=O)[O-])cc2)CN(C)C12c1ccccc1-c1nc3ccccc3nc12,1.4245,347.264,524.7812972,0.6617309
TERKUX,COc1cc(/C=C/C(=O)c2cccc([N+](=O)[O-])c2)cc(OC)c1,1.387,248.053,374.8562325,0.66172836
LANWUU,O=C(N/N=C/c1cccc([N+](=O)[O-])c1)c1ccc([N+](=O)[O-])cc1,1.4507,237.891,359.5068155,0.661714854
VIFSAF,Cc1nc2cc([N+](=O)[O-])ccc2[nH]1,1.4416,134.957,203.950877,0.661713262
LIHWEF,O=C1O[C@H]2CCC[C@@H]2C(=O)N1c1ccc([N+](=O)[O-])cc1,1.4765,205.455,310.4974714,0.66169621
LUYBEO,O=C(OCCCCOC(=O)c1cc([N+](=O)[O-])on1)c1cc([N+](=O)[O-])on1,1.5411,263.818,398.733316,0.661640223
PELJOH,O=[N+]([O-])c1cc([N+](=O)[O-])c(NCc2ccccc2)cc1NCc1ccccc1,1.4079,295.087,446.0027957,0.661625898
MICMAM,CCCNc1ccc([N+](=O)[O-])cc1[N+](=O)[O-],1.4419,171.497,259.2131712,0.661606041
SAGQUP,CCOC(=O)C1=C(C)Nc2nc3ccccc3n2C1c1ccccc1[N+](=O)[O-],1.429,290.721,439.4173101,0.661605707
DIWKAX,O=[N+]([O-])c1ccccc1/C=N/c1ccc2ccc3cccc4ccc1c2c34,1.3875,277.219,419.0163886,0.661594648
CUZMUF,Cn1cc([N+](=O)[O-])cn1,1.4517,96.14,145.3190024,0.661578998
PITDAZ,COc1ccc2ncn(-c3ccc([N+](=O)[O-])cc3)c2c1,1.42,208.166,314.6720539,0.661533166
WAKWEK,Cn1c(-c2ccccc2)c([N+](=O)[O-])c2cc([N+](=O)[O-])ccc21,1.4406,226.529,342.4425043,0.661509588
BEXGOB,Cc1ccc(-c2cc(-c3ccccc3)cc(-c3ccc(C)o3)c2[N+](=O)[O-])o1,1.3973,282.304,426.7856779,0.661465496
QANWAE,O=[N+]([O-])c1ccc(O)c(/C=N/C2CC2)c1,1.4012,161.534,244.2181113,0.661433336
LEXYUK,CCOC(=O)c1oc2ccc([N+](=O)[O-])cc2c1N1C(=O)CCC1=O,1.4863,245.372,371.0060062,0.661369347