name,smiles,Density,Vint,Veff,pc
FOVZIZ,O=C1c2ccccc2-c2cccc3c([N+](=O)[O-])c4ccccc4c1c23,1.5119,252.464,357.0459072,0.707091147
LAPWIL,Cc1c([N+](=O)[O-])cc(-n2cnnn2)cc1[N+](=O)[O-],1.6313,179.98,254.5361458,0.707090144
GEDYEU,O=[N+]([O-])N1CCn2nnnc21,1.6886,108.461,153.4521589,0.706806608
MUCGUN,O=C(NNC(=O)c1ccc([N+](=O)[O-])cc1)c1ccc([N+](=O)[O-])cc1,1.5721,246.303,348.6404761,0.706467025
MERVEN,Nc1c(-n2cncn2)c(N)c([N+](=O)[O-])c(N)c1[N+](=O)[O-],1.6678,196.99,278.8577841,0.706417433
REGCUB,Cc1cc2[nH]nc(-c3cccc([N+](=O)[O-])c3)n2n1,1.5438,184.68,261.4661109,0.706324806
YOKQAQ,O=[N+]([O-])c1ccc(O)c2ncccc12,1.5479,143.974,203.8741782,0.706190461
DNPMTA,O=[N+]([O-])N1CN2CN(C1)CN([N+](=O)[O-])C2,1.6791,152.286,215.6736296,0.706094669
IBORAV,COC(=O)c1cc2cc([N+](=O)[O-])ccc2oc1=O,1.5895,183.702,260.1665906,0.706093736
VOHZOI,O=[N+]([O-])/C(=N\Nc1ccc([N+](=O)[O-])cc1[N+](=O)[O-])c1ccccc1,1.5885,244.321,346.0814623,0.705963845
BEYZEK,O=C1c2cc([N+](=O)[O-])ccc2-c2ccc([N+](=O)[O-])cc21,1.58,200.329,283.8025006,0.705874682
CUMLUU,Nc1nonc1Nc1ccc([N+](=O)[O-])cc1[N+](=O)[O-],1.6491,189.047,267.8951972,0.705675212
CUBNES,O=C1c2ccccc2-c2ccc([N+](=O)[O-])cc21,1.5144,174.126,246.7681788,0.705625826
FULKUS,O=[N+]([O-])c1cccc2cn[nH]c12,1.5591,122.53,173.6522325,0.705605671
AMNTPY,Nc1ncccc1[N+](=O)[O-],1.5543,104.815,148.5471246,0.705601002
MERMOO,Nc1c(-n2cncn2)c(-n2cncn2)c([N+](=O)[O-])c(N)c1[N+](=O)[O-],1.663,233.97,331.5937593,0.70559229
EYEFOE,COc1ccc(/C=N/c2cc([N+](=O)[O-])c([N+](=O)[O-])cc2N)c(O)c1,1.5698,247.852,351.2835273,0.705561123
BAFHEW,O=[N+]([O-])c1ccc(N/N=C/c2ccc(O)cc2)c([N+](=O)[O-])c1,1.5571,227.201,322.1433032,0.70527929
DNEIBA,NC(=O)c1cc(N2CC2)c([N+](=O)[O-])cc1[N+](=O)[O-],1.593,185.29,262.7453539,0.705207522
HEGBON,O=C1OC(c2ccc([N+](=O)[O-])cc2)=N/C1=C\c1ccco1,1.5537,214.091,303.5864964,0.705205938
ROZHUM,O=[N+]([O-])c1cc([N+](=O)[O-])c2cccnc2c1Nc1ccccc1,1.5429,235.338,333.723885,0.705187763
KOKCOC,O=C1C=Cc2cccc3ccc(Oc4c([N+](=O)[O-])cc([N+](=O)[O-])cc4[N+](=O)[O-])c1c23,1.6035,297.196,421.5334606,0.705035372
CEDMUV,O=[N+]([O-])c1ccc(Cc2nnn[nH]2)cc1,1.5435,155.493,220.6171646,0.704809167
DUJBUG,O=Cc1cc([N+](=O)[O-])ccc1O,1.5617,125.152,177.5990886,0.704688301
SUGWOJ,COc1cc(C=O)cc([N+](=O)[O-])c1O,1.5668,147.121,208.8282106,0.704507305
NIVPAJ,Nc1cc(CO)ccc1[N+](=O)[O-],1.535,128.06,181.8043186,0.704383708
FUSZEY,O=c1[nH]c2c([N+](=O)[O-])cccc2c2ccccc12,1.5339,183.053,259.8818887,0.704369977
SITHEK,O=[N+]([O-])c1ccc(-n2cncn2)cc1[N+](=O)[O-],1.6144,170.279,241.7602302,0.704330071
GAQMIV,O=c1cn[nH]c2c([N+](=O)[O-])cccc12,1.5822,141.159,200.499021,0.704038351
NITBAL02,O=[N+]([O-])c1ccc(/C=N/O)cc1,1.5069,128.81,182.9732832,0.703982558
RAQROR,O=[N+]([O-])[C@@]12c3[n-]o[n+](=O)c3-c3[n-]o[n+](=O)c3[C@@H]1[C@H]1C=C[C@@H]2C1,1.6805,212.147,301.4274409,0.703807853
DNBZIL,O=C(C(=O)c1ccc([N+](=O)[O-])cc1)c1ccc([N+](=O)[O-])cc1,1.5428,227.292,322.9475595,0.703804669
XIZVAD,O=C1c2c(O)cccc2C2(Oc3cccc4c([N+](=O)[O-])ccc(c34)O2)C2OC12,1.5964,276.035,392.2169431,0.703781427
JAQVUV,CCN(c1c([N+](=O)[O-])cc([N+](=O)[O-])cc1[N+](=O)[O-])[N+](=O)[O-],1.6629,211.557,300.6131006,0.703751765
IDOGAL,O=[N+]([O-])c1ccc(N/N=C/c2c3ccccc3cc3ccccc23)c([N+](=O)[O-])c1,1.5154,297.728,423.0963172,0.70368847
LAHCEC,O=C(O)CNc1ccc([N+](=O)[O-])cc1,1.5474,148.031,210.390322,0.703601756
VUPQAB,Nc1c([N+](=O)[O-])c(N)c2nn(-c3ccccc3)cc2c1[N+](=O)[O-],1.5957,229.943,326.8504051,0.703511443
JUPROB,CNc1c([N+](=O)[O-])cc([N+](=O)[O-])cc1[N+](=O)[O-],1.6421,172.182,244.7554446,0.703485883
ROMJIN,COC(=O)c1cc(C(=O)O)cc([N+](=O)[O-])c1,1.579,166.476,236.6563621,0.703450347
WOQXOR,O=[N+]([O-])c1cc(/C=N/O)ccc1O,1.563,136.022,193.3996134,0.703320951
YAHJOH,Cc1ccc([N+](=O)[O-])c([N+](=O)[O-])c1[N+](=O)[O-],1.634,162.197,230.7134741,0.703023526
EPATAR,CN1C(=O)N[C@@H](c2cccc([N+](=O)[O-])c2)c2c1cn[nH]c2=O,1.5756,223.074,317.3237377,0.702985543
YACLOD,O=c1oc2ccccc2n1-c1c([N+](=O)[O-])cc([N+](=O)[O-])c2[n-]o[n+](=O)c12,1.6766,249.969,355.5876992,0.702974261
SINZEW,O=C(N/N=C/c1ccc([N+](=O)[O-])cc1)c1cc(O)cc(O)c1,1.5369,228.624,325.3019891,0.702805417
NIPYAZ,O=[N+]([O-])n1cccn1,1.5842,83.256,118.4731771,0.702741346
MENFXN,Cc1c([N+](=O)[O-])[n-]o[n+]1=O,1.6584,102.041,145.204726,0.702738835
CICCUN,O=C1C=Cc2ccccc2/C1=N/Nc1ccc([N+](=O)[O-])cc1[N+](=O)[O-],1.5634,252.162,359.0833678,0.702238039
RIRMAH,Nc1ccc([N+](=O)[O-])cc1N,1.5171,117.581,167.5309367,0.70184649
KEPVIK,O=[N+]([O-])c1cc2cccc3c2c(c1[N+](=O)[O-])-c1ccccc1-3,1.5457,220.202,313.7578989,0.701821375
WOVXOU,O=[N+]([O-])c1cn(-c2ccccc2)cn1,1.4968,147.168,209.7426405,0.701659899
OCEHEL,N#CC(C#N)=Cc1cc2c(cc1[N+](=O)[O-])OCO2,1.5305,184.997,263.686577,0.701579133
SOXNEA,[N-]=[N+]=CC(=O)c1cccc([N+](=O)[O-])c1,1.5117,147.226,209.8495409,0.701578852
NTPYRO11,O=[N+]([O-])c1cc[n+]([O-])cc1,1.5644,104.265,148.632608,0.701494789
LAPWUX,COc1cc(-n2cnnn2)c([N+](=O)[O-])cc1[N+](=O)[O-],1.6467,188.169,268.2856438,0.701375584
ZAYRIA,CC(=O)Nc1c(O)cc(C(=O)O)cc1[N+](=O)[O-],1.5947,175.302,249.957669,0.701326752
PAXQUC,N#[N+][N-]CC(=O)c1ccc([N+](=O)[O-])cc1,1.5184,157.986,225.3402594,0.701099752
MUGDID,C#CCOC(=O)c1cc(C(=O)OCC#C)cc([N+](=O)[O-])c1,1.4809,225.663,321.8742549,0.701090555
DEGCEY,COc1ccc(/C=C/C(=O)c2ccc([N+](=O)[O-])cc2)cc1,1.4472,227.712,324.8272878,0.701024848
NAPHUK,O=[N+]([O-])/C=C/C=C/[N+](=O)[O-],1.5547,107.831,153.8269809,0.70098886
UQACEV,COC(=O)c1cc2cc([N+](=O)[O-])ccc2[nH]1,1.5207,168.441,240.2922234,0.700983983
EMOMOL,O=C1CN(c2ccc([N+](=O)[O-])cc2)C(=O)CN1c1ccc([N+](=O)[O-])cc1,1.555,266.517,380.2567724,0.700886925
DAPJOU,O=[N+]([O-])c1cc([N+](=O)[O-])c(OCC2CC2)c([N+](=O)[O-])c1,1.5936,206.715,294.9441194,0.700861575
LACLAC,Cc1c(C(N)=O)cc([N+](=O)[O-])cc1[N+](=O)[O-],1.5817,165.586,236.2641777,0.700851063
QAJJUI,O=C(N/N=C/c1cccc(O)c1)c1cccc([N+](=O)[O-])c1,1.5087,219.909,313.777074,0.700844702
BEDWOX01,O=C1C=CC(=O)N1c1ccc([N+](=O)[O-])cc1,1.5414,164.617,234.8937302,0.700814789
SOHRUC,O=[N+]([O-])C1=CC(=[N+]([O-])[O-])C=C2C1=CC(c1ccccc1)=C[N+]2=O,1.5567,232.467,331.8151464,0.700591888
NAGGOU,O=[N+]([O-])c1ccc(-n2cnnn2)cc1,1.5605,142.396,203.2990741,0.70042621
BINROF,O=[N+]([O-])c1ccc(/C=N/Nc2nnn[nH]2)c([N+](=O)[O-])c1,1.6173,199.958,285.4954701,0.700389396
JUPRIV,CN(C)c1c([N+](=O)[O-])cc([N+](=O)[O-])cc1[N+](=O)[O-],1.6069,185.31,264.6009733,0.70033756
LOLHOK,O=[N+]([O-])c1ccc(-n2cc(-c3ccccc3)nn2)cc1,1.4825,208.706,298.0459168,0.700247808
JUWNUN,Cc1nnn(-c2ccc([N+](=O)[O-])cc2[N+](=O)[O-])n1,1.604,181.261,258.8683382,0.700205368
FEMGUZ,O=C1c2c(ccc3ccccc23)-c2c([N+](=O)[O-])ccc3cccc1c23,1.4916,253.364,361.9051402,0.700084005
BATRAQ,O=[N+]([O-])c1cc2ccc1CCc1ccc(c([N+](=O)[O-])c1)CC2,1.5038,230.447,329.1775168,0.700069076
LIJKEV,Cc1nc([N+](=O)[O-])cn1-c1cccnc1,1.523,155.753,222.5015648,0.70000856
TAFTOJ,COc1ncc([N+](=O)[O-])cc1[N+](=O)[O-],1.6215,142.665,203.8220545,0.699948788
QIKDET,Nc1cc([N+](=O)[O-])cc([N+](=O)[O-])c1,1.5995,133.003,190.0195725,0.699943686
DOPLOL05,NC(=O)c1cc([N+](=O)[O-])c(N)c([N+](=O)[O-])c1,1.635,160.664,229.5729421,0.699838572
ETUTIY,O=[N+]([O-])c1cccc(N2C=Nc3cccc([N+](=O)[O-])c3C2)c1,1.5473,223.874,319.8961947,0.69983327
DUTQOZ,O=C([O-])c1cc(-c2cc[nH+]cc2)cc([N+](=O)[O-])c1,1.5188,186.722,266.8335424,0.699769595
VIMFUV,CC(=O)c1ccc(Nc2ccc3nonc3c2[N+](=O)[O-])cc1,1.5402,224.866,321.3708494,0.699708765
QUNDIO02,O=C(c1cccc([N+](=O)[O-])c1)c1cccc([N+](=O)[O-])c1,1.5244,207.332,296.3494749,0.699619934
ITINAA,N#[N+][N-]CC(C[N-][N+]#N)=NNc1ccc([N+](=O)[O-])cc1[N+](=O)[O-],1.5737,236.247,337.7474879,0.699478186
VUBZUN,O=[N+]([O-])OC1CN([N+](=O)[O-])C1,1.6608,114.015,163.0032884,0.699464416
YUWYOH,Nc1nonc1-c1[n-]o[n+](=O)c1-c1nonc1[N+](=O)[O-],1.6987,192.814,275.6845572,0.699400801
DEKYOI,CC(=O)c1cc([N+](=O)[O-])c(O)cc1O,1.5655,146.135,209.0016228,0.699205097
ZZZQSC01,Cc1c([N+](=O)[O-])cccc1[N+](=O)[O-],1.5466,136.627,195.4504046,0.69903667
LOHGOE,O=C1c2cccc3c([N+](=O)[O-])ccc(c23)C(=O)N1c1ccccc1,1.521,242.739,347.2565238,0.699019265
QAVCIC,O=C1c2ccccc2C(=O)N1Nc1ccc([N+](=O)[O-])cc1[N+](=O)[O-],1.5884,239.717,342.9554924,0.698974081
SUGFUV,CC(=O)O[C@@H](C([N+](=O)[O-])[N+](=O)[O-])[C@H](OC(C)=O)C([N+](=O)[O-])[N+](=O)[O-],1.6744,245.401,351.111696,0.698925734
LEJKOA,O=[N+]([O-])C1([N+](=O)[O-])[C@H]2C[C@@H]3[C@H]4[C@@H]2[C@@H]2[C@H]4[C@H](C[C@H]21)C3([N+](=O)[O-])[N+](=O)[O-],1.6816,234.703,335.8187389,0.698897866
YIMWOI,N#CC(C#N)=Cc1ccc(-c2cccc([N+](=O)[O-])c2)o1,1.4622,210.375,301.012132,0.698892096
JUBCOY,O=[N+]([O-])c1cccnc1-c1ncccc1[N+](=O)[O-],1.565,182.447,261.0685016,0.698847233
QERYUK,O=C1/C(=C/c2ccccc2[N+](=O)[O-])Nc2ccccc21,1.4872,207.619,297.0914589,0.69883867
NUQZIJ01,Nc1ccc([N+](=O)[O-])cc1N/C=C1\C(=O)C=Cc2ccccc21,1.4908,239.019,342.0734537,0.698735892
RAPFIY,COC(=O)c1cc([N+](=O)[O-])cc([N+](=O)[O-])c1,1.5922,164.682,235.7323867,0.698597262
SITQAP,Cc1c(-n2cncn2)cc([N+](=O)[O-])cc1[N+](=O)[O-],1.5779,183.1,262.1028608,0.6985807
OLIHUM,COC(=O)c1cc(=O)c2cccc([N+](=O)[O-])c2[nH]1,1.561,184.323,263.8697882,0.698537719
KAXLOL,Cc1cc([N+](=O)[O-])c(C)c([N+](=O)[O-])c1[N+](=O)[O-],1.5925,175.537,251.3407882,0.698402362
DNBENZ10,O=[N+]([O-])c1cccc([N+](=O)[O-])c1,1.5744,123.76,177.216214,0.698355964
WERVEU02,NC(=O)N/N=C/c1ccc([N+](=O)[O-])o1,1.5907,144.379,206.741312,0.698355827
ECIVAO,CCOc1ccccc1NC(=O)C1=Cc2ccccc2/C(=N/Nc2ccc(C(N)=O)cc2[N+](=O)[O-])C1=O,1.4706,393.515,563.638742,0.698168828
UWOJIC,O=[N+]([O-])OCc1cc(-c2ncon2)no1,1.6398,149.896,214.7075082,0.698140467
UTUVUD,O=[N+]([O-])c1ccc(-c2cccc3ccc[n+]([O-])c23)cc1,1.4891,207.144,296.7123884,0.698130608
CODYAX,O=C(O)c1cc(/N=N/c2ccc([N+](=O)[O-])cc2)ccc1O,1.5386,216.263,309.8155716,0.698037865
PONHAE,O=[N+]([O-])c1c2c(cc3c(-c4ccccn4)nccc13)OCO2,1.5495,220.708,316.2152199,0.697967669
ZZZFYW01,O=[N+]([O-])c1ccccc1[N+](=O)[O-],1.5719,123.866,177.4980643,0.69784423
ATIPAX,O=[N+]([O-])c1cccc(-c2n[nH]c(-c3ccccc3)n2)c1,1.4793,208.397,298.6906454,0.697701797
NOPLUA,CC(=O)c1cc2cccc3ccc4ccc([N+](=O)[O-])c1c4c32,1.4801,226.249,324.326807,0.697595743
MEDNIU,CC(=O)/C(=C(/C)O)n1nc2n(c1=O)-c1cc([N+](=O)[O-])cc([N+](=O)[O-])c1OC2,1.6196,269.642,386.606015,0.697459402
SORBEG,O=[N+]([O-])c1ccc(-n2cccn2)cc1,1.4922,146.735,210.3892133,0.697445452
DEVROL,O=C1OC(=O)c2ccccc2/C1=C(/O)c1ccc([N+](=O)[O-])cc1,1.5445,233.238,334.4240752,0.697431846
LAPVEG,COc1c([N+](=O)[O-])cc(-n2cnnn2)cc1[N+](=O)[O-],1.6214,190.018,272.4719192,0.697385626
QUPROL,Cc1cc([N+](=O)[O-])ccc1C(=O)O,1.5166,138.239,198.2268795,0.697377674
JAYGEW,O=C(O)/C=C\C(=O)Nc1ccc([N+](=O)[O-])cc1,1.5348,178.101,255.3906304,0.697367009
TEWJOU,Nc1c([N+](=O)[O-])c(N)c([N+](=O)[O-])c(N2CCCCC2)c1[N+](=O)[O-],1.6112,234.354,336.0957541,0.697283429
KABNEI,N#Cc1ccc(/C=C\c2c([N+](=O)[O-])cc([N+](=O)[O-])cc2[N+](=O)[O-])cc1,1.5383,255.929,367.079051,0.697204047
BOMHAM,Cc1nc2cc([N+](=O)[O-])ccc2c(=O)o1,1.5543,153.471,220.1235255,0.697203989
RUGJUZ,Cn1cnc([N+](=O)[O-])c1[N+](=O)[O-],1.6364,121.706,174.5672309,0.697186977
TIJLIH,O=[N+]([O-])c1ccc(O)c(-n2cnnn2)c1,1.5909,150.655,216.1099757,0.697121915
VACROG,O=C(Cn1cnc([N+](=O)[O-])n1)NCCO,1.5795,157.6,226.1080675,0.697011839
ZIKYIB,O=[N+]([O-])c1ccc2c(c1)oc1ccccc12,1.5075,163.531,234.6789587,0.696828557
CUBKAN,COc1ccc(N2C(=O)c3ccc([N+](=O)[O-])cc3C2=O)cc1,1.5258,226.043,324.3916161,0.696821338
DMNPYO,Cc1c[n+]([O-])cc(C)c1[N+](=O)[O-],1.498,129.812,186.2948124,0.696809526
SITQUJ,COc1c(-n2cncn2)cc([N+](=O)[O-])cc1[N+](=O)[O-],1.5901,192.866,276.795962,0.696780396
JUFLAX,O=C(Oc1ccc2cccc3c2c1C(=O)C=C3)c1ccc([N+](=O)[O-])cc1[N+](=O)[O-],1.5461,291.889,418.9347638,0.696740937
ISAJAN,N#[N+][N-]C(=O)c1ccccc1[N+](=O)[O-],1.5347,144.766,207.7814956,0.696722293
FOHMUK,O=[N+]([O-])[C@H]1C[C@@H]1[N+](=O)[O-],1.6034,95.243,136.7267103,0.696593956
BUXJAH,N#Cc1cccc([N+](=O)[O-])c1C#N,1.4683,136.308,195.6829035,0.696575927
SEGFAL,Cn1nc([N+](=O)[O-])nc1[N+](=O)[O-],1.6719,119.705,171.84911,0.696570381
OLOHEC,O=C1C=CC=C/C1=C/Nc1ccc([N+](=O)[O-])cc1O,1.5024,198.591,285.2377347,0.696229761
ZOWDEU,Cc1ccc([N+](=O)[O-])cc1Nc1nnn[nH]1,1.5406,165.133,237.2125746,0.696139318
DUJQOP,NC(=O)c1cc([N+](=O)[O-])ccc1O,1.5585,135.001,193.9580338,0.696032009
ISAYEG01,Cc1c(NO)cc([N+](=O)[O-])cc1[N+](=O)[O-],1.5863,155.221,223.0169891,0.696005271
SITRAQ,COc1cc(-n2cncn2)c([N+](=O)[O-])cc1[N+](=O)[O-],1.5913,192.497,276.5872301,0.695972117
ZZZTLC01,O=[N+]([O-])N1CCN([N+](=O)[O-])CC1,1.6336,124.549,178.9643692,0.695943
SAFMAQ,O=[N+]([O-])c1cc([N+](=O)[O-])c2[nH]nnc2c1,1.644,146.924,211.1290311,0.695896719
QIKDAP,Nc1ccc([N+](=O)[O-])c(N)c1,1.5505,114.068,163.9220795,0.695867209
KECTAN,COC(=O)[C@H](O)[C@@H](Oc1c([N+](=O)[O-])cc([N+](=O)[O-])cc1[N+](=O)[O-])C(=O)OC,1.6288,275.973,396.6296128,0.695795248
KATGAO,O=C(N/N=C/c1cc([N+](=O)[O-])ccc1O)c1ccccc1,1.4949,220.299,316.6736715,0.695665664
ROLBAV,O=[N+]([O-])c1ccnc(-c2cc([N+](=O)[O-])ccn2)c1,1.5526,183.049,263.1535522,0.695597679
GAKQOZ,O=C(N/N=C/c1ccccc1[N+](=O)[O-])c1ccccn1,1.4884,209.582,301.3215713,0.695542636
HOCWEB,O=[N+]([O-])c1ncc(-c2ccccc2)cn1,1.4771,157.175,226.0307252,0.695370065
KOFDUF,O=C(NCCO)c1cc([N+](=O)[O-])cc([N+](=O)[O-])c1,1.5725,187.257,269.3383743,0.695248126
ZEVQUM,O=[N+]([O-])C1CN([N+](=O)[O-])C1,1.6212,104.67,150.6012251,0.695014266
GEYWIQ,O=[N+]([O-])c1ccc2c(c1)COCO2,1.56,133.931,192.7121059,0.694979692
SAWNAH,COC(=O)c1cc([N+](=O)[O-])on1,1.6129,123.069,177.099115,0.694915952
KUNJOV,COc1ccc(/C=N/Nc2ccc([N+](=O)[O-])cc2[N+](=O)[O-])c(O)c1,1.5406,248.712,357.9416339,0.69483954
SITQIX,Cc1c([N+](=O)[O-])cc(-n2cncn2)cc1[N+](=O)[O-],1.5738,182.571,262.7856806,0.694752468
JOPNAD,O=[N+]([O-])[N-][N@+]12CC[N@+]([N-][N+](=O)[O-])(CC1)CC2,1.61,166.29,239.3863229,0.694651215
RURVUY,N#Cc1c([N+](=O)[O-])cc(C(=O)Nc2ccccc2)c2c(N)onc12,1.5266,244.097,351.4230922,0.694595789
VEXFEJ,CCOC(=O)c1cc([N+](=O)[O-])cc2c1-c1c(cc([N+](=O)[O-])cc1[N+](=O)[O-])C2=O,1.5957,279.75,402.7752455,0.694556091
TAFCEI,O=[N+]([O-])c1cc([N+](=O)[O-])c(Nc2ccc(-c3ccccc3)cc2)c([N+](=O)[O-])c1,1.5271,287.049,413.3021288,0.69452582
FUJSOS,CC(=O)O[C@H]1[C@H](O)N([N+](=O)[O-])CCN1[N+](=O)[O-],1.6489,174.887,251.8292484,0.694466592
TABRET,O=[N+]([O-])c1ccc(/C=N/n2cncn2)o1,1.5709,151.969,218.8613918,0.694361846
WIGYOC01,O=C(Nc1ccc(O)cc1)c1ccc([N+](=O)[O-])cc1,1.4942,199.116,286.803087,0.694260309
CINVIE,C[C@@]1(O)C(=O)C([N+](=O)[O-])=C[C@](C2CC2)([N+](=O)[O-])[C@@H]1[N+](=O)[O-],1.5997,216.965,312.5156545,0.694253222
JIGBEG,O=[N+]([O-])CC(O)C(O)C(O)C(O)C(O)CO,1.5812,175.763,253.1855932,0.694206166
IMIWOQ,NC(=O)NN/C(N)=N/[N+](=O)[O-],1.6493,113.234,163.160407,0.694004153
HABMAZ,Cc1ccn(O)/c(=N/[N+](=O)[O-])c1,1.5407,126.438,182.2044131,0.693934893
EDAWIP,N/C=C\[N+](=O)[O-],1.5122,67.079,96.66584896,0.69392656
NEDDOP,Nc1ncnc2c1c([N+](=O)[O-])cn2[C@H]1C[C@H](O)[C@@H](CO)O1,1.5908,213.747,308.0394926,0.693894793
IDEHAD,Cc1cc[nH]c(=O)c1[N+](=O)[O-],1.5254,116.359,167.6905996,0.693891013
FESNIA01,COc1c([N+](=O)[O-])cccc1[N+](=O)[O-],1.5754,144.84,208.7373054,0.693886508
COPDIX,O=[N+]([O-])OCC1(CO[N+](=O)[O-])CCC1(CO[N+](=O)[O-])CO[N+](=O)[O-],1.667,246.079,354.6782317,0.693809143
MONLAE,O=C1O/C(=N\c2ccc([N+](=O)[O-])cc2)c2cccc3cccc1c23,1.5097,242.721,349.8557148,0.693774575
KEMREZ,O=C(Nc1ccc([N+](=O)[O-])cc1)c1ccc([N+](=O)[O-])cc1,1.5325,215.786,311.048769,0.693736872
JOHBUD,O=[N+]([O-])C1C([N+](=O)[O-])C12CC2,1.5503,117.427,169.2763954,0.693699791
ZIVBUB,CN1Cc2cc([N+](=O)[O-])ccc2OC1=O,1.5517,154.438,222.6494711,0.693637399
TUQHET,CNc1ccc([N+](=O)[O-])cc1C(=O)O,1.5306,147.519,212.6995847,0.693555656
RIKNOO,O=[N+]([O-])c1cc[nH]n1,1.5777,82.49,118.9612773,0.693418916
PICRIC,Cc1nn(-c2ccc([N+](=O)[O-])cc2[N+](=O)[O-])c2ccc(=O)ccc12,1.5301,245.355,353.8747385,0.693338556
SINRUC,O=Cc1cccn1-c1ccc([N+](=O)[O-])cc1,1.4789,168.2,242.5981669,0.69332758
TAHGAO,O=[N+]([O-])c1ncn(CCn2cnnn2)n1,1.5901,152.081,219.3748275,0.693247268
LOFSUV,CCN1C(=O)C(C#N)=C(C)/C(=N/Nc2ccccc2[N+](=O)[O-])C1=O,1.4914,252.483,364.2060275,0.693242233
SONBUS,COc1nccnc1/C=N\Nc1ccc([N+](=O)[O-])cc1[N+](=O)[O-],1.558,235.016,339.017424,0.693226906
BANFIG,NNC(=O)c1cccc([N+](=O)[O-])c1,1.5143,137.626,198.5402757,0.693189327
BELMOU,O=C1CC/[N+](=C/c2ccc([N+](=O)[O-])cc2)[N-]1,1.4948,168.674,243.3625421,0.693097625
XETJOX,COc1cc(-n2ccnn2)c([N+](=O)[O-])cc1[N+](=O)[O-],1.5818,192.853,278.2483621,0.693096622
TOYGIZ04,Cc1cc(C(=O)O)ccc1[N+](=O)[O-],1.5124,137.765,198.7773641,0.693061812
ACIDAR,O=C1C=C/C(=N\Nc2ccccc2[N+](=O)[O-])c2ccccc21,1.4775,228.284,329.4001464,0.693029443
MUDYOA,O=[N+]([O-])c1ccc(N/N=C/c2ccc(O)cc2O)cc1,1.5036,208.99,301.588369,0.692964389
VACRAT,Cc1cc/c(=N\[N+](=O)[O-])n(O)c1,1.5336,126.842,183.0479521,0.692944108
ZUGPOG,Cc1cccc([N+](=O)[O-])c1C#N,1.44,129.477,186.8670036,0.69288316
BEDROT,O=C1CN(c2ccccc2[N+](=O)[O-])C(=O)CN1c1ccccc1[N+](=O)[O-],1.5419,265.671,383.4874383,0.692776278
WOGPAJ,Cc1cc(O)nn1-c1ccc([N+](=O)[O-])cc1[N+](=O)[O-],1.567,193.851,279.8216649,0.692766231
VOFDOL,O=C(Nc1ccc(O)cc1)Nc1ccc([N+](=O)[O-])cc1,1.5066,208.508,300.9878346,0.692745606
VOLVAU,O=C1CCC(O)=C1Cc1ccccc1[N+](=O)[O-],1.4871,180.293,260.2609523,0.692739339
BYPOXO,O=C1OC(c2ccccc2)=N/C1=C\c1ccc([N+](=O)[O-])cc1[N+](=O)[O-],1.5337,254.275,367.1024279,0.692654095
HUTHUB,Cc1ccc(O)c(/C=N/Nc2ccc([N+](=O)[O-])cc2[N+](=O)[O-])c1,1.5226,238.762,344.7285733,0.692608674
DEXJAU,O=C1Cc2cc([N+](=O)[O-])ccc2N1,1.5362,133.287,192.4551754,0.692561266
HOFFIS,COC(=O)c1cc(C(=O)OC)cc([N+](=O)[O-])c1,1.5325,179.389,259.0243291,0.692556567
KAHSAP,O=C(Nc1ccc([N+](=O)[O-])cc1)c1ccccn1,1.4827,188.531,272.2281837,0.692547691
MODPOL,Cc1ccc(-c2nnn[nH]2)cc1[N+](=O)[O-],1.5216,154.971,223.7924512,0.692476441
FIDHIL,Cc1ncc([N+](=O)[O-])n1CCOc1cccc(C#N)c1C#N,1.4615,233.743,337.5582113,0.692452419
TIVMER,N#Cc1ccc(NC(=O)Nc2ccc([N+](=O)[O-])cc2)cc1,1.4715,220.413,318.3243133,0.692416479
CUNVAI,CC(=O)/C(C)=N/Nc1ccc([N+](=O)[O-])cc1[N+](=O)[O-],1.5152,201.869,291.5969755,0.692287702
LAPVOQ,Cc1ccc([N+](=O)[O-])cc1-n1cnnn1,1.51,156.079,225.5116514,0.692110581
OGEPUM01,O=C(Nc1cccc2cccnc12)c1ccc([N+](=O)[O-])cc1,1.4759,228.226,329.757244,0.692103067
UCIREE,O=c1n(-c2ccc([N+](=O)[O-])cc2)c(=O)n(-c2ccc([N+](=O)[O-])cc2)c(=O)n1-c1ccc([N+](=O)[O-])cc1,1.5794,358.049,517.3646677,0.692063108
WALFUM,CCOc1nc([N+](=O)[O-])cc([N+](=O)[O-])c1O,1.6098,163.489,236.2610294,0.691984626
DIFPUF,O=[N+]([O-])c1ccc(-n2cc3ccccc3n2)c([N+](=O)[O-])c1,1.5341,212.755,307.4773441,0.691937159
FOVZIA,COC(=O)c1cccc([N+](=O)[O-])c1O,1.5525,145.817,210.7517168,0.691889974
CABZIR,O=C1c2ccccc2C(=O)C1(O)C[N+](=O)[O-],1.5406,164.827,238.2490202,0.69182656
SECVOL,O=[N+]([O-])N1CCCN([N+](=O)[O-])C1C1N([N+](=O)[O-])CCCN1[N+](=O)[O-],1.6633,241.808,349.5251601,0.69181858
NIJWEL,O=C(Nc1ccc(NC(=O)Nc2ccccc2[N+](=O)[O-])cc1)Nc1ccccc1[N+](=O)[O-],1.5235,328.852,475.3590203,0.691797117
LOLFEX,O=[N+]([O-])N1CC(O)CN([N+](=O)[O-])C1,1.6555,133.262,192.6411046,0.69176306
HEHTUJ,Cc1n[nH]cc1[N+](=O)[O-],1.5255,95.661,138.2888205,0.691747891
TEWJUA,CC(C)Nc1c([N+](=O)[O-])c(N)c([N+](=O)[O-])c(N)c1[N+](=O)[O-],1.6023,215.133,311.0003685,0.691745161
NPNFPR,O=C(/C=C/c1ccc([N+](=O)[O-])o1)c1ccc([N+](=O)[O-])cc1,1.5216,217.434,314.3508771,0.691692042
NPBDXY,O=[N+]([O-])c1ccc(OC2OCC(O)C(O)C2O)cc1,1.5711,198.166,286.5110537,0.691652198
CATLUE,O=Cc1cn(-c2ccc([N+](=O)[O-])cc2[N+](=O)[O-])nc1-c1ccccc1O,1.5331,265.14,383.5053764,0.691359278
GUZKET,O=C(Cn1cccc([N+](=O)[O-])c1=O)Nc1ccccc1,1.4974,209.369,302.8370987,0.691358492
CUKDOC,O=[N+]([O-])c1cccc(NCNc2cccc([N+](=O)[O-])c2)c1,1.5054,219.701,317.7862167,0.691348424
NIJWAH,O=C(Nc1ccc(NC(=O)Nc2cccc([N+](=O)[O-])c2)cc1)Nc1cccc([N+](=O)[O-])c1,1.5168,330.021,477.4587733,0.691203133
REYKEO,CO[N-][N+](=O)C(CC([N+](=O)[O-])([N+](=O)[O-])[N+](=O)[O-])[N+](=O)[N-]OC,1.6622,225.81,326.7262863,0.691128965
ADEWEM,C/C(=N\Nc1c([N+](=O)[O-])cc([N+](=O)[O-])cc1[N+](=O)[O-])c1ccccc1,1.5478,255.865,370.2188858,0.691118173
WUPMAW,O=C(c1ccccc1)c1onc2ccc([N+](=O)[O-])cc12,1.4989,205.205,296.9652307,0.691006821
FUQFAY,O=[N+]([O-])c1ccc(/C(C/C(=N\O)c2ccccc2O)=N/O)cc1,1.4926,242.229,350.5500572,0.690996892
FESPEY,O=[N+]([O-])c1cc2cc3ccccc3cc2o1,1.4935,163.677,236.8788284,0.690973529
LERZIT,CC(=O)/C=C(\O)c1cc2cc([N+](=O)[O-])ccc2oc1=O,1.5312,206.08,298.2865623,0.690879262