name,smiles,Density,Vint,Veff,pc
KESHUM,COC(=O)C1=C(C)NC2(C)ON3c4ccccc4C1C2(C(=O)OC)C3c1ccccc1[N+](=O)[O-],1.3467,353.462,573.5754573,0.616243243
NULGEI,O=C1NC(c2ccccc2)=C[C@H](c2ccccc2)[C@H]1[N+](=O)[O-],1.3126,229.256,372.0731331,0.616158437
KALXOL,COC(=O)C1=C(C)NC(C)=C(C(=O)Nc2ccccc2C)C1c1cccc([N+](=O)[O-])c1,1.2928,333.327,540.9843423,0.616149071
HONDUM,CC(C)(O)C#Cc1ccc([N+](=O)[O-])cc1,1.2583,166.753,270.6395192,0.616144311
KICCIK,COC(=O)CCC1(CCC(=O)OC)c2ccccc2-c2ccc([N+](=O)[O-])cc21,1.3016,301.157,488.8115514,0.616100416
LOJBAN,CCCNc1ccc([N+](=O)[O-])cc1,1.2677,145.329,235.9053805,0.61604784
NUWPUT,O=C1N(Cc2ccccc2)c2ccccc2C1(C(C[N+](=O)[O-])c1ccccc1)n1ccc(O)n1,1.3022,356.786,579.1621203,0.616038217
PIPRAH,CC1C=CC(OC(=O)c2ccc([N+](=O)[O-])cc2)C2OC12,1.3287,211.779,343.7922827,0.616008592
NEQXEO,CCOC(=O)C1C(c2ccc([N+](=O)[O-])cc2)C2=C(CC(C)(C)CC2=O)OC1(C)O,1.3194,312.576,507.4220459,0.616007922
RENMEF,CCOC(=O)C12NC1(OC(=O)C1CCCCC1)OC1=C(C(=O)c3ccccc3C1=O)C2c1ccc([N+](=O)[O-])cc1,1.3513,413.437,671.1756507,0.615989271
DICDUO,O=C(OC1CCC2(CCCCO2)OC1)c1cc([N+](=O)[O-])cc([N+](=O)[O-])c1,1.3871,269.964,438.2929476,0.615944202
PEVNEL,CCOC(=O)C1=C(c2ccc([N+](=O)[O-])cc2)OCc2ccccc2C1,1.3098,264.799,429.9337173,0.615906567
PIWYEZ,Cc1cc(C)c2c(c1)CN1CN2Cc2cc(-c3c(C)cccc3C(=O)Oc3ccc([N+](=O)[O-])cc3)cc(C)c21,1.2882,412.212,669.3135912,0.615872747
GAPKIT,Cc1ccc(C2C3CCCN3C3(C(=O)Nc4ccccc43)C2(CO)[N+](=O)[O-])cc1,1.3174,305.216,495.5945062,0.61585832
JENHIT,COC(=O)C1=C(C)NC(C)=C(C(=O)OC)C1(C)c1cccc([N+](=O)[O-])c1,1.3137,280.354,455.2298284,0.61585156
DNPXBB,CC(C)(C)c1ccccc1Oc1c([N+](=O)[O-])cccc1[N+](=O)[O-],1.3127,246.26,399.8822986,0.61583121
YILDII,COc1ccc(/C(=N\c2ccc([N+](=O)[O-])cc2)Nc2ccccc2)cc1,1.2833,276.6,449.1849778,0.615781947
CADJEZ,CC(C)(C)OC(=O)C1(C(O)c2ccc([N+](=O)[O-])cc2)CO1,1.3159,229.322,372.4084948,0.615780798
QEGFAM,COC1C=CC(O)C(COC(=O)c2ccc([N+](=O)[O-])cc2)O1,1.3647,231.595,376.1019307,0.615777216
ZAPTAN,CCCCC(Oc1ccc([N+](=O)[O-])cc1C=O)C(=O)OC,1.3101,230.326,374.0572004,0.615750746
TIMTAK,C=C1CC(COC(=O)c2cc([N+](=O)[O-])cc([N+](=O)[O-])c2)C2C(OCc3ccccc3)CCC12C,1.3136,362.861,589.3183209,0.615730051
PIZNUJ,COc1ccc([C@H](C[N+](=O)[O-])c2c[nH]c3ccccc23)cc1,1.2884,234.993,381.6597198,0.61571339
QUMMER,CC1(C)OC2OC3COC(O)(Cc4cccc([N+](=O)[O-])c4)CC3(O)C2O1,1.387,270.611,439.5462333,0.615659923
HUCZOV,CC1=NN(c2cccc([N+](=O)[O-])c2)[C@H](c2ccccc2)C1,1.2814,224.27,364.3061793,0.615608553
DABQEF,O=C1CC(c2ccccc2)CC2=C1C(c1cccc([N+](=O)[O-])c1)C1C(=O)CC(c3ccccc3)CC1(O)O2,1.3114,396.915,644.7694683,0.615592114
FABROP10,O=[N+]([O-])c1cc([N+](=O)[O-])c(Nn2c3ccccc3c3ccccc32)c([N+](=O)[O-])c1,1.5115,222.499,600.2082509,0.615589404
HOSCIC,O=[N+]([O-])c1ccc(-n2c(-c3ccccc3)cc(-c3ccccc3)c2Cc2ccccc2)cc1,1.2538,350.683,569.7377519,0.615516523
XAZFIO,C[C@@]12CCC[C@]1(Nc1ccc([N+](=O)[O-])cc1)OCC2=O,1.3353,211.353,343.3759741,0.615514817
EKAHAB,CC1(C)C2CC3C(c4ccc([N+](=O)[O-])cc4)=NOC3(C)C1C2,1.2892,237.963,386.6155445,0.615502929
KOPNAE,CC(O)CCC1C(CO)C/C(=N/Nc2ccc([N+](=O)[O-])cc2[N+](=O)[O-])CC1(C)C,1.3086,318.824,518.0027426,0.615487089
IHOGER,C[C@H](OC(=O)c1ccc([N+](=O)[O-])cc1)[C@H](CC#N)c1ccccc1,1.2719,260.429,423.1612062,0.61543685
ETONUY,CCOC(=O)C1=CN(c2ccc([N+](=O)[O-])cc2)C=C(C)C1c1ccccc1,1.2766,291.505,473.6759479,0.615410179
MUKHEG,CC(=O)C1C2CCCC(C2=O)C(c2ccco2)C1[N+](=O)[O-],1.3348,222.88,362.1654053,0.615409414
ERSTNC,COc1c2c(c(CCCOC(=O)c3cc([N+](=O)[O-])cc([N+](=O)[O-])c3)c3c1CCC(C)(C)O3)OC(C)(C)CC2,1.3287,406.257,660.1541523,0.615397174
LACGEC,COC(=O)CCC(c1nc(N(C)C)nc(N(C)C)n1)([N+](=O)[O-])[N+](=O)[O-],1.3649,267.394,434.5125319,0.615388465
LUGBAR,C/C(=N\c1c(C)cc([N+](=O)[O-])cc1C)c1cccc(/C(C)=N/c2c(C)cc([N+](=O)[O-])cc2C)n1,1.2766,367.58,597.3147427,0.615387456
XIMRIX,CC(C)(C)OC(=O)N1C(=O)C2(Oc3ccccc3C2C[N+](=O)[O-])c2ccccc21,1.3312,304.089,494.1534146,0.615373669
VIVFOY,COC(=O)c1[nH]c2ccccc2c1C1=CC(c2ccccc2)(c2ccc([N+](=O)[O-])cc2)c2cc(C)ccc21,1.2845,397.914,646.6238165,0.615371704
BAWJIT,CC(C)(C(CC(=O)c1ccccc1)c1ccco1)[N+](=O)[O-],1.2707,230.886,375.2139984,0.615344846
EZUJAL,O=C(c1ccccc1)C1NC(c2ccccc2)C([N+](=O)[O-])C1c1ccccc1,1.273,298.72,485.4579418,0.615336519
NADLOT,O=C(OC1CC2CCC(C2)C12CCCO2)c1cc([N+](=O)[O-])cc([N+](=O)[O-])c1,1.3702,280.438,455.8433665,0.615206934
HAWNAV,C=C1C(C)(C)C2CCC1(C(COCc1ccccc1)OC(=O)c1cc([N+](=O)[O-])cc([N+](=O)[O-])c1)C2,1.3057,375.711,610.7091482,0.615204474
WOTVAC,CCCCCCOC(=O)Nc1ccc([N+](=O)[O-])cc1,1.2833,211.85,344.3699265,0.615181477
ACEZAK,Cc1cccc(C)c1NC(=O)CN1CCN(Cc2nc(-c3ccc([N+](=O)[O-])cc3)no2)CC1,1.3066,351.974,572.1756464,0.615150264
BOWDAT,CC1(O)CCN(Cc2ccccc2)C(c2ccccc2)C1[N+](=O)[O-],1.2684,262.677,427.0154119,0.615146415
SABJEM,COC(CN1CCN2C1=C([N+](=O)[O-])CC[C@@H]2O)OC,1.3553,205.837,334.6593233,0.615064293
DIPGEQ,C=CCOC(=O)/C(=C/c1[nH]c(C)cc1C)c1ccccc1[N+](=O)[O-],1.2724,261.787,425.6255318,0.615064136
AGUBOV,CCC1(c2ccccc2O)CC(c2ccc([N+](=O)[O-])cc2)Nc2ccc(OC)cc21,1.2836,321.566,522.8814991,0.614988292
GUWBIJ,CCOCN1C(C)=C(C(=O)OC(C)C)C(c2cccc([N+](=O)[O-])c2)C(C(=O)OC)=C1C(=O)OC,1.3242,367.234,597.1481992,0.614979666
QOHYAN,CCOC(=O)C(C)(NC(=O)c1ccc([N+](=O)[O-])cc1)C(C)CC,1.2817,256.684,417.3886705,0.614975964
OJUHOS,COC(=O)C1(C(=O)OC)CC(c2ccc(C)cc2)NC1c1ccccc1[N+](=O)[O-],1.3027,312.118,507.5337485,0.614969942
JEJWEA,O=[N+]([O-])c1ccc(C2CC3(ON2c2ccccc2)C(c2ccccc2)=NOC3N2CCOCC2)cc1,1.3184,376.597,612.3844396,0.614968271
XUMZUD,O=[N+]([O-])/C(=C/C=C/c1ccccc1)c1ccccc1,1.2314,208.235,338.61275,0.61496503
NAWXAL,CC(CC(CCOC(=O)c1ccc([N+](=O)[O-])cc1)OC(C)c1ccccc1)OC(=O)c1ccc([N+](=O)[O-])cc1,1.3146,416.514,677.3008103,0.614961615
HIHWEA,CCOC(=O)C1=C(C)NC(C)=C(C(=O)OCC)C1c1cccc([N+](=O)[O-])c1,1.3073,292.252,475.2618482,0.614928383
FIWFUO,CN(C)CCNC(=O)C1C(c2cccc([N+](=O)[O-])c2)CC1c1cccc([N+](=O)[O-])c1,1.3007,323.556,526.2222317,0.614865698
YODFUT01,CCCNc1ccc(C(=O)OCC)cc1[N+](=O)[O-],1.3015,197.783,321.6715623,0.614860072
HAHBEA,COc1ccc(C2c3c(cccc3[N+](=O)[O-])NC(c3ccccc3)C2C)cc1,1.2732,300.042,488.0106414,0.614826757
QUJMOX,CC1(C)CC2C(CCOC(=O)c3ccc([N+](=O)[O-])cc3)C(=O)OC21C,1.3116,270.187,439.5055773,0.614752153
BUFXOS,CC(C)(C)c1cc2c(c(C(C)(C)C)c1)Oc1cc3c(cc1=N2)Oc1cc([N+](=O)[O-])ccc1N=3,1.2991,348.26,566.5092688,0.614747223
ORIGUT,O=[N+]([O-])c1ccc(O)c(/C=N/c2ccc(C(=C(c3ccccc3)c3ccccc3)c3ccccc3)cc2)c1,1.262,401.364,652.8956712,0.614744465
GITRAD,O=C(O/C1=C2\CCCCC2CCCC2CC12)c1ccc([N+](=O)[O-])cc1,1.2841,271.204,441.1921137,0.61470727
LOKMOQ,Cc1ccc(C2C([N+](=O)[O-])=C([N+](=O)[O-])C(c3ccc(C)cc3)c3[nH]ccc32)cc1,1.3028,304.89,496.0099982,0.61468519
HABZIT,N#CCC[C@@]1([N+](=O)[O-])CCCCCCC1=O,1.2638,181.001,294.4826579,0.614640608
ESEBUA,COC(=O)/C1=C2\C=CC(OC)(O2)C(OC(=O)c2cc([N+](=O)[O-])cc([N+](=O)[O-])c2)CCC/C=C/CCC1=O,1.3537,389.123,633.1526769,0.614580044
VUQFOD,CCOC(=O)C1(C(=O)OCC)C(C(=O)c2ccc(C)cc2)C1c1ccc([N+](=O)[O-])cc1,1.2963,334.7,544.6269064,0.614549145
OCONEZ,Cc1ccc(/C=C/C=C(\C=C\c2ccc(C)cc2)[N+](=O)[O-])cc1,1.2111,257.114,418.3949351,0.614524648
WAGZOU,CC1(C)C=CCC23C(OC(=O)c4ccc([N+](=O)[O-])cc4)=CCC2(C)C3C1,1.2737,282.946,460.4396587,0.614512661
FANTIX,CC(=O)c1c(C)c([N+](=O)[O-])c(C(C)(C)C)c([N+](=O)[O-])c1C,1.2912,232.447,378.266947,0.614505184
VEJLAZ,C=C(C(=O)OCC)C1(c2ccc([N+](=O)[O-])cc2)CC(C(=O)OC)=C(c2ccc(C)cc2)C1(C#N)C#N,1.2784,387.249,630.2053451,0.614480666
WILRUF,CC1=CC2C(C)C(OC(=O)c3cc([N+](=O)[O-])cc([N+](=O)[O-])c3)CC2C1(C)C,1.3141,290.509,472.8025373,0.614440442
KIZVIZ,COc1ccc(N2C(=O)C3(OC3[N+](=O)[O-])C2C2COC(C)(C)O2)cc1,1.36,262.661,427.4963179,0.614416988
XAKWOV,CC(OC(=O)c1ccc([N+](=O)[O-])cc1)C1OC(c2ccccc2)(c2ccccc2)C1(C)C,1.2675,347.068,564.8965183,0.614392174
OXALOQ,CC(C)N(C(=O)C(c1ccccc1)c1ccc([N+](=O)[O-])cc1[N+](=O)[O-])C(C)C,1.2844,305.944,497.9780114,0.614372508
IDEHEH,CCOC(=O)Cn1ccc(C)c([N+](=O)[O-])c1=O,1.3466,181.857,296.0551882,0.614267229
HUFKOJ,COC(=O)c1c(C)nc(C)c(C(=O)OCC(C)C)c1-c1ccccc1[N+](=O)[O-],1.2978,303.499,494.0954031,0.614251819
HIMYUA,CCOC(=O)[C@@H](C#N)[C@H](c1ccccc1)[C@H](C)[N+](=O)[O-],1.2654,222.563,362.343874,0.614231441
IDEDUQ,CC1CCC(C(C)(C)c2ccccc2)C(OC(=O)c2cc([N+](=O)[O-])cc([N+](=O)[O-])c2)C1,1.2939,335.924,546.9611184,0.614164314
OLIHOG,COC(=O)c1cc(OCC(C)C)c2cccc(NC(=O)c3cc(OCC(C)C)c4cccc([N+](=O)[O-])c4n3)c2n1,1.3145,423.711,690.025662,0.614051076
IQUSUJ,CCOC(=O)C1=C(N)Oc2c(c(=O)oc3ccccc23)C1c1ccc([N+](=O)[O-])cc1,1.3562,306.816,499.693116,0.614008859
UBUPAI,CCOC(=O)C12CCCCC1(O)C(/C(C)=N/Nc1ccc([N+](=O)[O-])cc1[N+](=O)[O-])CC2,1.3418,329.85,537.3375732,0.613859921
IMUFOM,COc1ccccc1-c1c2c(c(C#N)c(N)c1[N+](=O)[O-])CCN(C)C2,1.2983,265.48,432.4977131,0.613829835
XUCVID,Cc1ccc(C2c3ccccc3C3(COc4ccccc4N3)C2[N+](=O)[O-])cc1,1.2884,294.397,479.6553555,0.613767774
ISACIO,C[C@H](NC(=O)c1ccc([N+](=O)[O-])cc1)c1ccccc1,1.2848,214.258,349.1039808,0.613736915
KAKNEP,CCc1ccc(C[C@H](O)c2ccc([N+](=O)[O-])cc2)nc1,1.275,217.51,354.4125357,0.613719827
BUTQAK,O=C(OCC(=O)C12CC3CC(CC(C3)C1)C2)c1ccccc1[N+](=O)[O-],1.3289,263.15,428.7919031,0.613700954
HESJIZ,CN1CC(c2ccccc2)C([N+](=O)[O-])C12C(=O)Nc1ccccc12,1.3075,251.842,410.389814,0.613665328
JUNGOO,COC(=O)C12CCCC=C1/C(=C\COC(=O)c1ccc([N+](=O)[O-])cc1)CCC2,1.3037,301.054,490.5916268,0.61365499
ERUSUH,O=[N+]([O-])c1cccc([C@H]2Nc3ccccc3-c3cccc(O)c32)c1,1.3009,249.175,406.0554958,0.613647648
ITAKOE,O=[N+]([O-])c1cccc(C(c2c(O)ccc3ccccc23)N2CCCCC2)c1,1.2751,289.37,471.655516,0.613519805
BOSWOV,CC(=O)OCC1OC(Oc2ccc([N+](=O)[O-])c([N+](=O)[O-])c2)C(OC(C)=O)C(OC(C)=O)C1OC(C)=O,1.3958,375.232,611.6393867,0.613485672
JIVGIH,COc1ccc(CN2C=CC3(CC(=O)CC(c4ccccc4)C3)C([N+](=O)[O-])=C2)cc1,1.2786,322.021,524.9262413,0.61345952
XITKUJ,COc1ccc(C2Oc3ccccc3C3C4(C(=O)c5cccc6cccc4c56)N4CCCCC4C23[N+](=O)[O-])cc1,1.3153,412.156,671.9159312,0.613404119
ZOLQID,COC(=O)C1(C(NC(=O)OC(C)(C)C)c2ccc([N+](=O)[O-])cc2)C(=O)c2ccccc2N1C(C)=O,1.3228,372.054,606.5485424,0.613395258
CEPQEU,O=[N+]([O-])c1ccc2c(c1)NC1(CCCCC1)C(N1CCOCC1)O2,1.3295,255.253,416.1415589,0.613380218
QADLOW,COC(=O)/C=C1/COC(c2ccccc2)C1(C)[N+](=O)[O-],1.3074,215.88,351.9534913,0.613376498
KEDYEA,Cc1cc(C)c(Nc2c([N+](=O)[O-])cc3c4c(cccc24)C(=O)N(c2c(C)cc(C)cc2C)C3=O)c(C)c1,1.2817,391.928,639.0014666,0.613344445
HAPCUZ,O=[N+]([O-])c1ccc(-c2c(C3=CCCCC3)[nH]c3ccccc23)cc1,1.2713,254.868,415.5573163,0.613316118
ZESGAF,CC1(C)CC2C1CCC(C)(OC(=O)c1cc([N+](=O)[O-])cc([N+](=O)[O-])c1)C1CCC21C,1.2931,327.797,534.4775962,0.613303537
AVUCIG,CCCCCCOc1cc(C)cc(OCC(=O)Nc2ccc([N+](=O)[O-])cc2)c1,1.2677,310.224,505.8747621,0.61324269
DUPJAZ,CC(Oc1ccc([N+](=O)[O-])cc1)c1ccccc1,1.2687,195.113,318.1796292,0.613216504
PUNWAZ,CCN1C2=C(C(=O)CC(C)(C)C2)C(c2ccc([N+](=O)[O-])cc2)c2ccccc21,1.2677,302.144,492.7682708,0.613156361
JERHIY,COC(=O)CC1CCCC(c2ccccc2)C1[N+](=O)[O-],1.2771,220.923,360.3511206,0.613077044
FELROD,CC12CC(C(C)(C)C)(C(C)(C)C)OC(c3ccc([N+](=O)[O-])cc3)(OO1)O2,1.2968,286.694,467.6313083,0.613077001
NUDQEL,CCC1C([N+](=O)[O-])C2(O)CCCC23CCCC(=O)C13,1.3047,208.439,340.0202382,0.613019393
LUQFIP,O=[N+]([O-])c1ccc2nc(-c3ccc4cccc(O)c4n3)n(Cc3ccc4cccc(O)c4n3)c2c1,1.3305,354.329,578.0311511,0.612992915
BETVUR,O=[N+]([O-])c1ccc([C@@H]2NC[C@@H]3CCCC[C@@H]3O2)cc1,1.3056,204.37,333.406841,0.612974825
UHASIG,CC1(C)c2ccccc2N(C(=O)c2ccc([N+](=O)[O-])cc2)C1Oc1ccc2ccccc2c1,1.2824,347.779,567.3776542,0.612958578
YIFNUY,O=C1CN2/C(=N/c3ccccc3[N+](=O)[O-])OCC2CN1C1CCCCC1,1.3349,273.099,445.5519612,0.612945344
MULSET,CCOC(=O)C1CC2(CCCc3ccccc32)C(C)([N+](=O)[O-])C1,1.279,252.399,411.7907688,0.612930204
CARLIQ,CC(C)C1=C(/C=N/Nc2ccc([N+](=O)[O-])cc2[N+](=O)[O-])C2CCCC3(C)C(C)CCC(=O)C23CC1,1.2879,381.077,621.8100778,0.612851116
SEMXAJ,COc1c(C(C)(C)C)cc([N+](=O)[O-])c(C)c1[N+](=O)[O-],1.3036,209.297,341.5286081,0.612824212
BENVIA,CC12CCC(C(=O)OCC(C)([N+](=O)[O-])C(C)(C)[N+](=O)[O-])(OC1=O)C2(C)C,1.3396,282.71,461.3300336,0.612815077
WABZAD,COc1cc(OC)c(C2CC(c3ccccc3)(c3ccccc3)Oc3ccc([N+](=O)[O-])cc32)c(OC)c1,1.2955,390.486,637.3010271,0.612718297
CIRLUL,CC(c1ccccc1)N(C(=O)c1ccccc1[N+](=O)[O-])C(C)c1ccccc1,1.2627,301.496,492.0687007,0.612711192
SAPSOU,C=CC(c1ccccc1OC)C(O)c1ccc([N+](=O)[O-])cc1,1.2633,240.883,393.1858052,0.612644192
JERHOE,O=[N+]([O-])C1C(C#Cc2ccccc2)CCCC1c1ccccc1,1.2282,252.744,412.5697003,0.612609215
KONSEO,CN(C)c1ccc(C(=O)/C=C2\Nc3ccc([N+](=O)[O-])cc3C2(C)C)cc1,1.2675,281.84,460.0658454,0.612607962
GAGHIG,C=CC(C)CC(c1ccccc1)N(C(=O)c1cc([N+](=O)[O-])cc([N+](=O)[O-])c1)c1ccc(OC)cc1,1.2873,375.501,612.9686176,0.612594167
HULDOI,CC(C)C1N(C(=O)/C=C/[N+](=O)[O-])C(=O)OC1(c1ccccc1)c1ccccc1,1.2897,299.821,489.4594637,0.612555323
PAWCEX,Cc1ccccc1C1CN(C)C2c3ccccc3OCC12[N+](=O)[O-],1.2867,256.247,418.3408409,0.612531637
EGORIE,Cc1ccc(C23OC(=O)C(Nc4cccc([N+](=O)[O-])c4)C2CCN3C(=O)OC(C)(C)C)cc1,1.3063,352.841,576.106017,0.612458453
TBMNBZ10,CC(C)(C)C(OC(=O)c1ccc([N+](=O)[O-])cc1)(C(C)(C)C)C(C)(C)C,1.2115,293.172,478.6822511,0.612456383
QOFQOR,CC1(C)N(O)C(c2ccc([N+](=O)[O-])cc2)N(O)C1(C)C,1.2987,220.164,359.4802693,0.61245086
FOVBOH,CCN(CC)C(=N/c1ccc([N+](=O)[O-])cc1)/C(=N\c1ccc([N+](=O)[O-])cc1)N(CC)CC,1.2723,351.894,574.5694316,0.612448175
MOVCAC,O=[N+]([O-])c1ccc(C2CC(c3ccccc3)CCO2)cc1,1.2688,226.94,370.547346,0.612445353
FIWGEY,CC1(C)N=C(c2ccccc2)[C@H]2[C@H](c3ccc([N+](=O)[O-])cc3)N21,1.2629,247.322,403.8510782,0.612408913
HESRUT,COc1cccc(/C=N/NC(=O)c2ccncc2)c1OCc1ccccc1[N+](=O)[O-],1.3065,316.088,516.2002995,0.612335948
DIJPAO,C[C@H]1[C@@](C)(OC(=O)c2ccc([N+](=O)[O-])cc2)CC[C@@]1(C)C#N,1.2704,241.816,394.9240607,0.612310123
JACKUU,O=C(NC1CCCC(Cc2ccccc2)NC1c1ccccc1)c1cc([N+](=O)[O-])cc([N+](=O)[O-])c1,1.2957,372.121,607.7336153,0.612309391
YEJQAF,N#Cc1cc2[nH]c3ccccc3c2n(-c2ccc([N+](=O)[O-])cc2)/c1=N/c1ccccc1,1.2871,320,522.6839777,0.612224621
LOJFUN,COc1ccc(C2C([N+](=O)[O-])C3c4ccccc4CCN3C23C(=O)c2ccccc2C3=O)cc1,1.306,353.524,577.4626791,0.612202334
SAZGUX,CC1(C(C[N+](=O)[O-])c2ccccc2)C=CC(=O)O1,1.2929,194.267,317.3551325,0.612143873
YAQJAC,CC(=O)OCC1OC(Oc2cccc([N+](=O)[O-])c2)C(OC(C)=O)C(OC(C)=O)C1OC(C)=O,1.3645,349.483,570.9227079,0.612137151
TISNEP,COC(=O)c1ccc(N(Cc2ccccc2)C(C(=O)NCc2ccccc2)c2ccccc2)c([N+](=O)[O-])c1,1.2731,406.539,664.1813956,0.612090315
YIPQUL,CC1(O)CCC([N+](=O)[O-])C(c2ccccc2)C12C(=O)c1ccccc1C2=O,1.308,283.726,463.5541067,0.61206663
RECTIE,Cc1nn(-c2ccccc2)c(O)c1C(C[N+](=O)[O-])c1c2ccccc2cc2ccccc12,1.2742,337.541,551.4806615,0.612063167
DINXUW,CC1(C)CC(=O)C2=C(C1)Oc1ccccc1C2c1c[nH]c2ccc([N+](=O)[O-])cc12,1.3075,301.701,492.9629944,0.612015513
SECSOK,CC(C)(C)c1cc(N)n(-c2cccc([N+](=O)[O-])c2)n1,1.2768,207.035,338.3203612,0.611949571
DUCXEF,CC/C(C)=N/Nc1ccccc1[N+](=O)[O-],1.2671,166.09,271.4162653,0.611938271
NEYXOG,C=C(C)C1Cc2cc(C)ccc2NC1c1ccc([N+](=O)[O-])cc1,1.2438,251.744,411.4150223,0.611897929
WIXBUB,COc1ccc(O)c([C@H](NC(C)=O)c2cccc([N+](=O)[O-])c2)c1,1.3057,245.992,402.0261113,0.611880654
RALPAW,O=[N+]([O-])c1cccc(/C=N/C2CCCCC2/N=C/c2cccc([N+](=O)[O-])c2)c1,1.2916,299.059,488.7538902,0.611880552
IQUDUW,Cc1cccc(/N=C/c2cc([N+](=O)[O-])ccc2N2CCCCC2)c1,1.2542,261.804,427.8784115,0.611865411
HOXDIJ,C=CC1(CCC(=O)OC(C)(C)C)CCCn2cc(C(=O)OC)c(-c3ccccc3[N+](=O)[O-])c21,1.2772,361.336,590.5588539,0.611854344
ZILKIR,CC1CC2CCC(c3ccccc3)C2(OC(=O)c2cc([N+](=O)[O-])cc([N+](=O)[O-])c2)C1,1.3119,317.652,519.1641239,0.611852756
NIPFAV,CCOc1ccc(N(c2ccc(OCC)cc2)c2ccc([N+](=O)[O-])cc2)cc1,1.2708,302.339,494.152584,0.611833288
KEFVIA,O=[N+]([O-])c1ccc(C2C3CCC(C3)C2c2ccccc2)cc1,1.2476,238.7,390.1818738,0.611765989
DAJKUW,CC(=O)OCC1OC2OC(c3ccccc3)=NC(c3cccc([N+](=O)[O-])c3)C2CC1OC(C)=O,1.3284,358.009,585.226824,0.611744003
DASQET,CC1CCC(C(C)C)C(=O)/C1=C/c1ccc([N+](=O)[O-])cc1,1.2337,236.436,386.5160489,0.611710693
VIKVUG,CC1(C)C(C)(C)C1(C#N)[N+](=O)[O-],1.2275,139.091,227.39719,0.61166543
PEVQIR,O=[N+]([O-])c1ccc(Oc2ccccc2Oc2ccc([N+](=O)[O-])cc2)cc1,1.5018,222.507,604.0849457,0.611660871
VENPEK,CC1(C)OC2OC(COC(=O)c3ccccc3)C(O)(C[N+](=O)[O-])C2O1,1.3609,263.543,430.8738607,0.611647686
RAVNEH,CC(=O)N(C(C)=O)c1c(C)ccc(C)c1[N+](=O)[O-],1.2869,197.387,322.7199857,0.6116355
TAJLAR,CC(C)C(C)(c1ccccc1)C(C)(c1ccc([N+](=O)[O-])cc1)C(C)C,1.1956,288.169,471.1512615,0.611627355
BOWCOG,CC1(C)CC(=O)C2(OC3=C(C(=O)CC(C)(C)C3)C2c2cccc([N+](=O)[O-])c2)C(=O)C1,1.301,320.952,524.8162123,0.61155123
TITKUC,C/C(=C\C=C\N1CCCC1)[N+](=O)[O-],1.2412,148.997,243.6387683,0.611548815
CUWWAV,Nc1onc(C(=O)OCC23CC4CC(CC(C4)C2)C3)c1[N+](=O)[O-],1.3711,237.831,388.9377732,0.611488563
VADGAK,CC1C(=O)CC2CC1C(/C=C/c1ccc([N+](=O)[O-])cc1)OC2(C)C,1.2684,263.496,430.9425996,0.61144106
VUYLAC,C/C(=N\c1ccc([N+](=O)[O-])cc1)N(C)C,1.2581,167.131,273.3578807,0.61139997
BAZQOJ,CCOC(=O)C(C(=O)OCC)(c1ccc([N+](=O)[O-])cc1)C(C(=O)OCC)(C(=O)OCC)c1ccc([N+](=O)[O-])cc1,1.3406,424.219,693.874915,0.611376764
LOJGOI,CC1([N+](=O)[O-])C2c3ccccc3CCN2C2(C(=O)N(Cc3ccccc3)c3ccccc32)C1c1ccccc1,1.274,410.569,671.5665722,0.61136009
EMAWUL,CC(=O)c1cc(/N=N/c2ccc([N+](=O)[O-])cc2)ccc1O,1.307,221.43,362.2000548,0.611347229
PROPNB10,O=C(OC1CCCC23CCC12CC3)c1ccc([N+](=O)[O-])cc1,1.2934,236.358,386.6234855,0.611338961
PUWGIX,COC(=O)/C(=C(\c1ccccc1)N1CCCCC1)[N+](=O)[O-],1.2875,228.727,374.2014189,0.611240333
ESAMUI,N#CC1=C(N)Oc2ccc([N+](=O)[O-])cc2[C@H]1[C@H]1C(=O)Nc2ccccc21,1.3382,263.988,431.9469217,0.611158424
WIKZEV,Cc1cc2c(c([N+](=O)[O-])c1[N+](=O)[O-])C(C)(C)CC(C)C2(C)C,1.272,244.23,399.6901758,0.611048294
KOYLUI,O=[N+]([O-])c1ccc(C2C=Cc3ccccc3C2O)cc1,1.2821,211.342,345.9393928,0.610922041
MEBQAL,O=C(OCC12CCC3(CC1CCN(Cc1ccccc1)C2)OCCO3)c1ccc([N+](=O)[O-])cc1,1.3077,361.668,592.0233755,0.610901554
IGAFOM,CC1(C)CC(C)(c2ccc([N+](=O)[O-])cc2)c2ccccc21,1.2368,230.582,377.4771231,0.610850263
KUMZEZ,Cc1cccc(C)c1Nc1cc(Nc2c(C)cccc2C)c([N+](=O)[O-])cc1[N+](=O)[O-],1.288,319.853,523.6615785,0.61080097
XUQNAY,CC1=C2C(C/C1=N\Nc1ccc([N+](=O)[O-])cc1[N+](=O)[O-])C(C)C1CCC(C)(C)C21,1.2934,312.238,511.2442323,0.610741364
WICCIU,O=[N+]([O-])c1c(-c2ccccc2)cc(-c2ccccc2)cc1-c1ccccc1,1.237,287.869,471.3659801,0.610712296
CAGFUO,CCOc1ccc([N+](=O)[O-])cc1C1CC(c2cccc3ccccc23)=NN1c1ccccc1,1.2764,347.314,568.764531,0.610646377
AGUQOI,C=CC(C)C(C)(OC(=O)c1ccc([N+](=O)[O-])cc1)c1cccc2ccccc12,1.2526,303.66,497.3408948,0.610567124
LONSOY,O=[N+]([O-])c1cccc(C2NC(c3ccccc3)C([N+](=O)[O-])C2c2ccccc2)c1,1.2965,304.317,498.420228,0.610563101
VIKWER,C[C@H]1[C@@H](C)[C@]1([N+](=O)[O-])[C@]1([N+](=O)[O-])[C@@H](C)[C@H]1C,1.2874,179.641,294.2373297,0.610530962
SIRXOG,Cc1ccc(/N=C(/c2ccccc2)c2ccc([N+](=O)[O-])cc2)cc1,1.2424,257.959,422.5296425,0.610511013
CEBKID10,CC1(C)c2ccccc2N(Cc2ccccc2)C12C=Cc1cc([N+](=O)[O-])ccc1O2,1.269,318.069,521.0319532,0.610459681
YOHCII,COC(OC)C(C)(c1ccc2ccccc2c1)C(O)c1ccc([N+](=O)[O-])cc1,1.2698,304.29,498.4645996,0.610454585
FAFCOE,CC12CCCC3(OC(=O)c4cc([N+](=O)[O-])cc([N+](=O)[O-])c4)CCC13CCC2,1.3303,285.061,467.0448877,0.610350327
ZONJUH,CCN(CC)c1cccc(OCCOc2ccc([N+](=O)[O-])cc2)c1,1.2616,265.229,434.5753835,0.610317588
FESPIF,CCCNC1=C([N+](=O)[O-])C(CC(=O)c2ccccc2)c2cc3ccccc3nc2N1c1ccccc1,1.2764,379.643,622.1401872,0.610220989
BIGQUD,COc1ccc(COC2CC(c3ccccc3)C3C([N+](=O)[O-])C(c4ccccc4)ON3O2)cc1,1.297,361.069,591.7460224,0.610175627
DEBPAE,COC(=O)/C(=C/c1ccc([N+](=O)[O-])cc1)CC(/N=C/c1ccc2ccccc2c1)C(=O)OC,1.2777,353.808,579.8489585,0.610172692
BAQJAE,COC1(C)CC(c2ccco2)C([N+](=O)[O-])C(c2ccccc2[N+](=O)[O-])O1,1.3437,273.058,447.5122366,0.61016879
GUHDOC,C=CCc1cc(/N=N/c2ccc([N+](=O)[O-])cc2)c(OC(=O)c2ccccc2)c(OC)c1,1.2847,328.983,539.1843861,0.610149345
KEZSOZ,COc1cc(OC)c(CC2CCCC(OC(=O)c3ccc([N+](=O)[O-])cc3)C2)c(OC)c1,1.2922,336.513,551.5355486,0.610138369
GILYAD,COC(=O)C1(Cc2ccccc2)CC(C(=O)OC)(C(OC(=O)OC(C)(C)C)c2ccc([N+](=O)[O-])cc2)N=N1,1.3091,408.001,668.7436744,0.610100724
SADXUT,CC1(O)CC(c2ccccc2)C([N+](=O)[O-])CC1C(=O)c1ccccc1,1.2657,271.468,444.961369,0.610093412
HIWROU,CC1(C)OCC(C(OCc2ccccc2)C(O)C(C2CCOC(c3ccccc3)O2)[N+](=O)[O-])O1,1.3054,367.239,601.9642778,0.610067762
MUVNOG,CC12CCC3c4ccc(O)c([N+](=O)[O-])c4CCC3C1CCC2O,1.3051,246.188,403.5555845,0.610047313
KAZNEE,C=C1CCC(C(C)C)C2C(=C/C)/C(=N/Nc3ccc([N+](=O)[O-])cc3[N+](=O)[O-])CC12,1.2678,318.175,521.5675106,0.610036081
DUZPIX,C=CC1(C)C(C)C(OC(=O)c2cc([N+](=O)[O-])cc([N+](=O)[O-])c2)C2(C)CCCC12,1.2988,302.748,496.2921178,0.610019763