name,smiles,Density,Vint,Veff,pc
PONHEI,O=[N+]([O-])c1c2c(cc3ccnc(-c4ccccn4)c13)OCO2,1.4685,220.67,333.6571216,0.661367571
OXIMOZ,CCOC(=O)c1c(C)[nH]c(-c2ccc([N+](=O)[O-])cc2)c1O,1.4301,222.774,336.8463079,0.661352061
BICNUW,CCOC(=O)/C(=C/c1ccc([N+](=O)[O-])cc1)[N+](=O)[O-],1.4474,201.861,305.2432521,0.661311916
VIPVEX,C=CCn1cc2cccc([N+](=O)[O-])c2n1,1.3964,159.698,241.4903843,0.661301693
OTENEI,COc1cc([N+](=O)[O-])ccc1C(=O)Nc1ccccc1-n1cccn1,1.4252,260.515,393.9456631,0.661296784
WONTUO,C=C(C(C)=O)C(O)c1ccc([N+](=O)[O-])cc1,1.3849,175.286,265.0782455,0.661261356
QELQEG,Nc1nc2ccccc2c(C(=O)NCc2ccccc2)c1[N+](=O)[O-],1.4127,250.353,378.6297188,0.661208002
BOCYOI,O=NN(c1ccccc1)c1ccc([N+](=O)[O-])cc1,1.4121,188.998,285.838629,0.661205243
EVEXAE02,COc1ccc(C(=O)/C=C(\O)c2cccc([N+](=O)[O-])c2)cc1,1.4039,233.905,353.7653722,0.661186816
ESIRIJ,O=[N+]([O-])c1cccc2c1CN2,1.4238,115.703,174.997391,0.661169857
LEDYOK,COC(=O)CNC(=O)c1ccc(OC)c([N+](=O)[O-])c1,1.4552,202.255,305.9072785,0.661164393
GAPHOW,O=c1oc2ccccc2c(O)c1C(c1ccc([N+](=O)[O-])cc1)c1c(O)c2ccccc2oc1=O,1.4701,341.351,516.3095437,0.661136336
AYALOC,O=[N+]([O-])OC[C@]12[C@@H]3[C@@H]4[C@H]1[C@@H]1[C@H]2[C@H]3[C@]41CO[N+](=O)[O-],1.524,183.001,276.8253827,0.66107016
DUJSIL,COc1ccccc1C(=O)N/N=C/c1ccc([N+](=O)[O-])cc1,1.4076,233.256,352.8487213,0.66106517
VADHEQ,O=C1C2C(c3cccc([N+](=O)[O-])c3)CC2N1c1cccc2cccnc12,1.4068,269.298,407.3726852,0.661060522
KUFLUU,COc1cccc(/C=N/c2cccc([N+](=O)[O-])c2)c1O,1.4087,212.021,320.7322789,0.66105289
PEDREY,CCN1C(=O)C(C#N)=C(C)/C(=N/Nc2ccc([N+](=O)[O-])cc2)C1=O,1.4215,252.595,382.1152793,0.661043967
TIHBES01,Cc1c(/N=C/c2ccc([N+](=O)[O-])o2)c(=O)n(-c2ccccc2)n1C,1.4198,252.104,381.4087611,0.660981146
DICPAJ,O=[N+]([O-])c1ccc2c(c1)C=C(c1ccccc1)c1ccccc1O2,1.3833,250.006,378.2532319,0.660948748
JAPXOQ,O=[N+]([O-])c1ccc(/C=C/C2=NN(c3ccccc3)CC2)cc1,1.3657,235.546,356.4100009,0.660884934
LIJQEB,N#C/C(=C\c1c[nH]c2ccccc12)c1ccc([N+](=O)[O-])cc1,1.3737,230.953,349.461135,0.660883219
TEJSUX,COc1cc2c(c([N+](=O)[O-])c1OC)[C@@H](O)NCC2,1.4625,190.66,288.5075589,0.660849236
SAPYEN,CC(=O)/C(=C(/C)O)c1ccc([N+](=O)[O-])cc1,1.3896,174.58,264.1816798,0.660833106
HUDBOY,CC(/C=C/c1ccco1)=N/Nc1ccccc1[N+](=O)[O-],1.385,214.795,325.0407978,0.660824738
QUDROX,O=C(c1ccccc1)c1noc(-c2ccccc2)c1[N+](=O)[O-],1.4142,228.182,345.2996555,0.660823133
EROFUN,C=CCn1c(=O)n(CC2CC(c3ccc([N+](=O)[O-])cc3)=NO2)c2c3c(ccc21)C(=O)c1ccccc1C3=O,1.4296,390.027,590.245128,0.660788173
OJAREW,CO[C@]12C(=O)c3cc([N+](=O)[O-])ccc3N1C[C@H]1O[C@H]12,1.489,193.106,292.2599918,0.660733612
MUYLAT,Cc1cc(C)n(-c2cccc([N+](=O)[O-])c2)c(=O)n1,1.4092,190.81,288.8020979,0.660694646
UFEFAM,O=[N+]([O-])c1ccc(N2CCCCCC2)c2nonc12,1.4422,199.393,301.7987823,0.660681923
XEFPUW,CCn1c2ccccc2c2c([N+](=O)[O-])c3c(c([N+](=O)[O-])c21)c1ccccc1n3CC,1.4196,310.783,470.4013356,0.66067627
SOSYAC,Cc1ncc([N+](=O)[O-])n1C[C@H](C)OC(=O)c1ccccc1C(=O)O,1.4394,253.883,384.2846736,0.660663871
BOGSIA,C/C=C/C=N/Nc1ccc([N+](=O)[O-])cc1[N+](=O)[O-],1.4296,191.903,290.4774638,0.660646776
BATWOJ,COC(=O)c1cc2ccc1CCc1ccc(cc1[N+](=O)[O-])CC2,1.403,243.243,368.2386513,0.660558035
HEHVAR,Cc1[nH]ncc1[N+](=O)[O-],1.4556,95.727,144.9296481,0.660506675
LEFCEG,C/C(=C\c1ccccc1[N+](=O)[O-])[N+](=O)[O-],1.428,159.796,241.9364036,0.660487623
FOMQEE,COc1c(OC(C)=O)c(C)cc(/C=C(\C)[N+](=O)[O-])c1[N+](=O)[O-],1.4435,235.593,356.7156323,0.66045045
NIBBEI,O=C1OC2(CCCC2)OC(=O)C1=CNc1cccc([N+](=O)[O-])c1,1.4675,237.722,359.9402113,0.660448576
DUCTUR,O=[N+]([O-])c1ccc(/C=N/OCCCO/N=C/c2ccc([N+](=O)[O-])cc2)cc1,1.4173,287.941,435.9845185,0.660438589
ZOFTAP,N#C/C(=C\c1ccc([N+](=O)[O-])o1)C(=O)NCc1ccco1,1.4436,218.079,330.2038227,0.660437539
SAHLEU,O=C(O)c1ccccc1Nc1ccccc1[N+](=O)[O-],1.4295,197.982,299.7839614,0.660415584
AZUCOO,COc1ccc(-c2cccc3cccc(-c4ccc(OC)c([N+](=O)[O-])c4)c23)cc1[N+](=O)[O-],1.4164,333.018,504.272407,0.660393064
NANVED,CCOC(=O)[C@](C#N)(c1ccccc1)c1ccc([N+](=O)[O-])cc1[N+](=O)[O-],1.429,272.487,412.6288108,0.660368333
YISGOW,O=C(OC1C(=O)OC2COC(c3ccccc3)OC21)c1ccc([N+](=O)[O-])cc1,1.4768,285.921,433.0061351,0.660316279
EXEPIG,Cc1cc2c(c(=O)o1)C(c1ccc([N+](=O)[O-])cc1)c1c(cc(C)oc1=O)O2,1.4659,274.558,415.8231232,0.660275931
VATXAR,CCOc1ccc(C(=O)c2cccc([N+](=O)[O-])c2)c(O)c1,1.4058,223.886,339.1122535,0.660212062
YELQAK,CCOC(=O)c1oncc1C(=O)c1ccc([N+](=O)[O-])cc1,1.4554,218.494,330.9492121,0.660204019
COCNBZ01,O=C(O[C@@H]1C=CCCCCC1)c1cc([N+](=O)[O-])cc([N+](=O)[O-])c1,1.4301,245.386,371.6939016,0.660183013
YUVFED,O=C1NC(c2ccccc2)(c2ccccc2)C(=O)N1/N=C/c1ccc([N+](=O)[O-])cc1,1.4075,311.648,472.0671741,0.660177231
QUJGIL,O=C(O)c1cc([N+](=O)[O-])cc(C(=O)O)c1-c1c(C(=O)O)cc([N+](=O)[O-])cc1C(=O)O,1.5569,295.744,447.9830599,0.66016782
ACANOH,O=C(NCCO[N+](=O)[O-])c1ccncc1,1.4465,159.956,242.2987094,0.660160347
XOHFAB,CC1C(=O)OC(CO)C1C[N+](=O)[O-],1.4608,141.883,214.922794,0.660157991
LEMSAA,COc1cccc(C(=O)Nc2ccc([N+](=O)[O-])cc2)c1OC,1.4181,233.525,353.7487517,0.660143672
VIKYOD,O=[N+]([O-])[C@H]1[C@H]2[C@@H]3C[C@H]4[C@@H]5[C@@H]([C@H]1[C@@H]53)[C@H]([N+](=O)[O-])[C@H]42,1.5219,170.049,257.5950859,0.660140699
XAZJOZ,CC1=NN(c2ccc(C)cc2)C(=O)/C1=C(O)/C=C/c1cccc([N+](=O)[O-])c1,1.3906,286.25,433.6259435,0.660131167
EDASOR,N#Cc1ccccc1/N=N/Nc1ccccc1[N+](=O)[O-],1.396,209.718,317.6975517,0.660118402
DAYPUP,O=[N+]([O-])c1ccccc1/C=N/CC/N=C/c1ccccc1[N+](=O)[O-],1.4025,254.879,386.1134824,0.660114219
JAHPIR,O=[N+]([O-])c1ccc(/C=N/n2cccn2)o1,1.4561,155.094,234.9815602,0.660026258
WEPMAG,COc1cc(OC)c(OC)cc1/C=C/C(=O)c1ccc([N+](=O)[O-])cc1,1.3923,270.097,409.2229679,0.660024048
JUDQOQ,CCOC(=O)/C(=N/Nc1ccc([N+](=O)[O-])cc1)c1nc2ccccc2[nH]1,1.4276,271.069,410.7442266,0.659945977
KEDXUP,CC1=CC(c2ccc([N+](=O)[O-])cc2)c2c(c3ccccc3oc2=O)O1,1.429,256.959,389.3861484,0.659907912
XETJUD,COc1ccc([N+](=O)[O-])c(-n2ccnn2)c1[N+](=O)[O-],1.5197,191.118,289.6185163,0.659895653
CUPTAK,Cn1c(=O)c2c(c3ccccc31)OC(c1ccccc1)=CC2c1cccc([N+](=O)[O-])c1,1.3968,321.732,487.5832808,0.659850353
UZEWIH,CC(=O)O[C@H]1N=C(C([N+](=O)[O-])([N+](=O)[O-])[N+](=O)[O-])N([N+](=O)[O-])[C@@H]1OC(C)=O,1.6209,256.892,389.3276851,0.659834915
IHOVAF,O=C1/C(=C/c2ccc([N+](=O)[O-])cc2)OC2c3ccccc3CCN12,1.421,248.365,376.4050314,0.659834432
DUBZAE,O=C1C2C3C=CC(O3)C2C(=O)N1c1ccc([N+](=O)[O-])cc1,1.4796,211.822,321.0526683,0.659773367
MABPAJ,O=C1N[C@H](c2ccc([N+](=O)[O-])cc2)Nc2ccccc21,1.4462,203.848,308.9713155,0.659763511
MOPHIK,Cn1cc([N+](=O)[O-])cc1C(=O)N/N=C/c1ccccc1,1.4049,212.186,321.6130794,0.659755506
REWDUS,CCOC(=O)C1=C(C)NC(=O)N[C@@H]1c1cccc([N+](=O)[O-])c1,1.4394,232.223,351.9876364,0.659747605
TUNCUD,O=[N+]([O-])c1ccc(Cn2nnnc2C2N=C2c2ccccc2)cc1,1.4026,250.023,378.983081,0.659720743
SEKHOF,O=[N+]([O-])CC1OCC(O)C(O)C1O,1.5226,138.9,210.5563987,0.659680736
WAXJUC,N[C@H](c1cccc([N+](=O)[O-])c1)[C@H](N)c1cccc([N+](=O)[O-])c1,1.4241,232.38,352.2714409,0.659661764
TINXIY,COC(=O)c1cc(=O)n2c(c1[N+](=O)[O-])N(C)CC2,1.4778,187.578,284.3739524,0.659617375
NOFNED,Cc1cc(-c2ccccc2[N+](=O)[O-])ccc1O,1.3735,182.676,276.9567579,0.659583111
DELXEX,O=[N+]([O-])c1ccc(N/N=C2\[C@H]3C[C@@H]4[C@H]5C=C[C@@H]4[C@@H]2[C@@H]35)c([N+](=O)[O-])c1,1.4654,243.738,369.5401658,0.659571063
DIPHOC,COC1C([N+](=O)[O-])=CNC(=O)N1C,1.4863,137.839,208.9959518,0.659529521
IQUSAQ,COC(=O)Cc1ccc([N+](=O)[O-])cc1,1.4095,151.56,229.8015423,0.6595256
WAMLIG,COC(=O)c1cccc([N+](=O)[O-])c1,1.4302,138.633,210.2019895,0.659522778
EVUMIR,O=[N+]([O-])C(=C(c1ccccc1)c1ccc([N+](=O)[O-])cc1)[N+](=O)[O-],1.4588,236.509,358.630788,0.65947768
RAQRUX,CC1=C(C)C[C@@]2([N+](=O)[O-])c3[n-]o[n+](=O)c3-c3[n-]o[n+](=O)c3[C@H]2C1,1.5244,230.654,349.7575383,0.659468274
LEZPEL,CC1=NN(c2ccccc2)C(=O)/C1=N\Nc1ccc([N+](=O)[O-])cc1,1.4152,249.984,379.1286844,0.659364512
ZELPAK,CCOc1cccc(/C=N/NC(=O)c2ccc([N+](=O)[O-])cc2)c1O,1.4191,253.924,385.1070424,0.659359534
OFOLIE,O=[N+]([O-])c1ccc2c(ccn2Cc2ccc(Cn3ccc4cc([N+](=O)[O-])ccc43)cc2)c1,1.4049,332.087,503.6914628,0.65930639
FUHSEG,N#C/C(=C\c1ccccc1)[N+](=O)[O-],1.3536,140.769,213.5163159,0.659289195
JEKHOX,O=C1c2ccccc2C(=O)C1(O)/C(=C/c1ccoc1)[N+](=O)[O-],1.4612,224.059,339.8513443,0.659285313
ZECPIG,COC(=O)C12CCC1(C(=O)OC)C1(c3ccccc3)OC2(c2ccc([N+](=O)[O-])cc2)C=C(c2ccccc2)C1=O,1.4136,417.56,633.3657347,0.659271535
OHUJOQ01,O=[N+]([O-])c1ccc2c(c1)OC13CCCCC1(N2)Oc1cc([N+](=O)[O-])ccc1N3,1.4992,280.485,425.4589502,0.65925279
ETELOG,COc1ccc(-c2nc3ccccn3c2-c2ccc([N+](=O)[O-])cc2)cc1,1.3867,272.448,413.2774885,0.659237456
WAKZUH,N#C/C=C(\OC(=O)c1ccc([N+](=O)[O-])cc1)c1ccccc1,1.3835,232.678,352.9618885,0.659215648
EBUVUS,C=C1CC(C(=O)OC)(C(=O)OC)CC(/C=N/Nc2ccc([N+](=O)[O-])cc2[N+](=O)[O-])=C1C,1.4403,328.428,498.2239433,0.659197545
ODEVEY,CC(OC(=O)c1cc([N+](=O)[O-])cc([N+](=O)[O-])c1)C1ON(Cc2ccccc2)C2C(=O)OCC12,1.467,341.09,517.43722,0.65919108
SOPZOM,Cc1cn(-c2ccc([N+](=O)[O-])cc2)c(C)n1,1.3792,172.297,261.377292,0.659188863
ROFNIK,Cc1ccc([N+](=O)[O-])cc1-c1nnn[nH]1,1.4461,155.221,235.4765186,0.659178252
FIBLIL,O=C(c1ccc([N+](=O)[O-])cc1)N1CCCCO1,1.4267,181.129,274.7837396,0.659169281
QADBAY,O=C1CCC2C1C2[N+](=O)[O-],1.43,107.949,163.7869441,0.659081837
RAKWIJ02,O=[N+]([O-])c1ccc(C23c4ccccc4-c4cccc(c42)-c2ccccc23)c([N+](=O)[O-])c1,1.4147,314.151,476.6819465,0.659036916
GIGQUI01,COc1c([N+](=O)[O-])c(OC)c([N+](=O)[O-])c(OC)c1[N+](=O)[O-],1.6185,222.453,560.5281256,0.659031073
ZAKWIU01,COC(=O)C1=C(C)OC(N)=C(C#N)C1c1ccccc1[N+](=O)[O-],1.4219,242.51,367.9801782,0.659030063
KEPDUF,O=[N+]([O-])/N=C1\NCCN1Cc1cc(-c2ccccc2)on1,1.4352,218.922,332.1915513,0.659023383
NAPJIA,C/C(=C\C=C(/C)[N+](=O)[O-])[N+](=O)[O-],1.4176,132.814,201.5403387,0.658994625
MUXYOW,CC1(C)CC(/C=C/c2ccc(Oc3ccc([N+](=O)[O-])c4nonc34)cc2)=CC(=C(C#N)C#N)C1,1.3766,360.223,546.6296927,0.658989083
ZEZDAL,COc1c([N+](=O)[O-])cc(Cn2ccnn2)cc1[N+](=O)[O-],1.494,204.395,310.1791485,0.658957899
LORNAI,Cc1c(CC#N)cccc1[N+](=O)[O-],1.3466,143.064,217.1118921,0.658941335
RELQUW,Cc1cccn2c([N+](=O)[O-])c(-c3ccccc3)nc12,1.3944,198.6,301.400718,0.658923447
VAPMAA,CO[C@]1(C)C=CC(=O)[C@H]1OC(=O)c1cc([N+](=O)[O-])cc([N+](=O)[O-])c1,1.4735,249.554,378.7310363,0.65892144
TEYHIO,COC(=O)Nc1ccc([N+](=O)[O-])cc1/C(C(=O)OC)=C(\C#N)C(=O)OC,1.4404,275.804,418.5743412,0.658912821
OMOBOH,CCOC(=O)c1cn(-c2ccc([N+](=O)[O-])cc2[N+](=O)[O-])nc1C,1.4624,239.482,363.4557447,0.658902778
MADKOT,C[C@H]([C@H](O)c1ccncc1)[N+](=O)[O-],1.404,141.876,215.3447418,0.658831968
YUJGIT02,O=[N+]([O-])c1ccc(/C=N/Nc2ccccc2)cc1,1.3668,192.967,292.9074928,0.658798442
KULRUG,O=[N+]([O-])c1cccc(C#CC#CCCO)c1,1.3348,176.261,267.549984,0.658796526
GUZWEE,O=[N+]([O-])[C@]12C[C@H]3[C@@H]4C[C@@]5([N+](=O)[O-])C[C@H]([C@@H](C1)[C@@H]3C5)[C@@H]4C2,1.497,203.252,308.5217948,0.658793004
TEPDID,O=C1CCc2cc(-c3ccc([N+](=O)[O-])cc3)c(O)c(-c3ccccc3)c21,1.3936,270.903,411.2178812,0.65878215
PARPOO,Cc1nc(/N=N/c2ccccc2)ccc1[N+](=O)[O-],1.3876,190.845,289.7078926,0.658749744
ZOHSOE,N#CCCN(CCC#N)[N+](=O)[O-],1.3564,135.538,205.7566227,0.658729708
VIZMAU,CN(C)C1=N/C(=N\c2ccccc2[N+](=O)[O-])c2ccccc21,1.3754,233.887,355.0980432,0.658654714
YULWOU,COc1ccc(C(=O)Nc2cc([N+](=O)[O-])ccc2C)cc1,1.3892,225.249,341.9881585,0.658645612
YIBZUF,Cc1ccc(O)c(/C=N/c2ccc([N+](=O)[O-])cc2)c1,1.3824,202.612,307.6203748,0.658642979
TAWBIE,COc1cc2c(cc1OC)/C(=C/c1ccc([N+](=O)[O-])cc1)C=C2,1.3796,245.037,372.0583063,0.658598386
TIVQEV,Cc1ccc(NC(=O)Nc2ccc([N+](=O)[O-])cc2)cc1,1.3923,212.906,323.336569,0.658465576
VAQPEJ,CC(CC1CC1COC(=O)c1cc([N+](=O)[O-])cc([N+](=O)[O-])c1)OC(=O)c1cc([N+](=O)[O-])cc([N+](=O)[O-])c1,1.4787,383.103,581.8244253,0.658451215
WUMDIR,COC(=O)C(/C=C/c1ccc([N+](=O)[O-])cc1)=C/c1ccccc1,1.3546,249.483,378.9248777,0.658396993
DEXVUY,O=C1COc2ccc([N+](=O)[O-])cc2N1Cc1ccccc1,1.4259,217.806,330.838601,0.658345185
VUZVIW,O=[N+]([O-])c1ccc(C2=NN(c3ccccc3)C(c3c4ccccc4cc4ccccc34)C2)cc1,1.3626,355.548,540.0830058,0.658321029
UJUDOU,COc1cc([C@H]2CC(c3cccc([N+](=O)[O-])c3)=NN2)ccc1O,1.4105,242.665,368.6240686,0.658299392
UQOTEC,N#CC1(C(N)=O)CC(c2ccccc2)=C([N+](=O)[O-])C1c1ccccc1,1.3709,265.609,403.5047732,0.658254915
JUFKIE,CN1C2=CC=CC=CC2=[N+](C)[C@]12[N-]C=C([N+](=O)[O-])C=C2[N+](=O)[O-],1.4557,236.607,359.4488353,0.658249455
POQFIM,COc1ccc(/N=N/c2ccccc2[N+](=O)[O-])cc1,1.39,202.165,307.1274218,0.658244708
XERGUW,O=C1[C@@H]2[C@H]([N+](=O)[O-])[C@@H]2C(=O)N1Cc1ccccc1,1.432,187.82,285.344953,0.658220859
MULGUW,Cc1nc(/C=C/c2ccccc2)c([N+](=O)[O-])n1C,1.3561,195.935,297.6868592,0.658191633
SEGSEC,CO[C@@H]1O[C@H](CO[N+](=O)[O-])[C@@H](O[N+](=O)[O-])[C@H](O[N+](=O)[O-])[C@H]1O,1.6153,222.641,338.2618173,0.658191344
TICSAZ,Cc1cn([C@H]2C[C@H]([N+](=O)[O-])[C@@H](CO)O2)c(=O)[nH]c1=O,1.5047,196.905,299.1667246,0.658178145
OPUBIL,COC(=O)/C=C/c1cccc(-c2cccc([N+](=O)[O-])c2)c1NC(C)=O,1.382,268.969,408.6685191,0.658159333
XISJIV,COC(=O)C1=C(C)NC2=C(C(=O)CCC2)C1c1ccc(O)c([N+](=O)[O-])c1,1.4429,271.235,412.1479223,0.658101097
PEWNIO,CC(=O)CC1C([N+](=O)[O-])=CC([N+](=O)[O-])=C(NN(c2ccccc2)c2ccccc2)C1[N+](=O)[O-],1.4388,344.174,522.9810263,0.658100357
OFUCUQ,COc1ccc(C(=O)NN2CC(=O)N(NC(=O)c3ccc([N+](=O)[O-])cc3)CC2=O)cc1,1.4592,319.849,486.0632622,0.658039858
HOFFIR,CC[C@]1(c2cccc([N+](=O)[O-])c2)CCC(=O)NC1=O,1.4065,203.613,309.4458227,0.657992401
HEXQAD,CC(=O)C(O)C(O)c1ccc([N+](=O)[O-])cc1,1.4198,173.2,263.2348342,0.65796763
XUBRES,CC(=O)Nc1ccc(OC(C)=O)c([N+](=O)[O-])c1,1.4428,180.275,273.9955142,0.657948728
XIVXEF,CC1=CCC2([N+](=O)[O-])C(C1)c1c([n-]o[n+]1=O)C1([N+](=O)[O-])CC=C(C)CC12,1.4688,269.364,409.4096177,0.657932761
TUJVUR,CC(=O)c1cc(-c2ccc([N+](=O)[O-])cc2)c(=O)n(-c2ccccc2)n1,1.4066,260.268,395.6003555,0.657906385
CADDIU,O=C(/C(=N/Nc1ccc([N+](=O)[O-])cc1)c1ccccc1)c1cc(-c2ccccc2)no1,1.3916,323.544,491.7805028,0.657903268
JAZLAX,O=C/C=C/c1ccc([N+](=O)[O-])cc1,1.3726,140.916,214.1898076,0.657902453
QAQPIH,CC1(C)C(C#N)=NO[C@]1(C#N)[N+](=O)[O-],1.4116,150.179,228.2724921,0.657893549
VETMUD,Nc1ccc(OCc2ccccc2)cc1[N+](=O)[O-],1.3896,191.894,291.6862449,0.657878125
DELXOH,O=C(O[C@@H]1[C@@H]2[C@@H]3C=C[C@H]4[C@@H]3C[C@@H]2[C@@H]14)c1cc([N+](=O)[O-])cc([N+](=O)[O-])c1,1.4773,252.971,384.5303324,0.657870078
HDNBPP,O=[N+]([O-])c1cc2c(c([N+](=O)[O-])c1)O[C@H]1OCCC[C@H]1C2,1.5,203.972,310.0556478,0.657856103
NIZCAA,Cc1cccc(Cc2ccc([N+](=O)[O-])cc2[N+](=O)[O-])n1,1.4204,210.014,319.2539226,0.657827469
TOKKUC,COc1ccc(/N=N/Nc2ccccc2[N+](=O)[O-])cc1,1.405,211.548,321.5901889,0.657818576
IZUFIS,O=[N+]([O-])c1cc2ccccc2nc1-c1ccccc1,1.3726,199.017,302.5449966,0.65780959
EROVOX,Cc1nn(-c2ccccc2)c2c1C(c1cccc([N+](=O)[O-])c1)C(C#N)=C(N)O2,1.4086,289.342,439.8685949,0.657791903
YUPZIT,C/C(=C\c1cccc([N+](=O)[O-])c1)[N+](=O)[O-],1.4233,159.661,242.7353224,0.657757588
BUPKAB,CC(=O)OCC1OCC(c2cc([N+](=O)[O-])cc([N+](=O)[O-])c2)C=C1OC(C)=O,1.47,282.412,429.3674247,0.657739697
LOLBUL01,CCOC(=O)C1=C(C)NC(=O)NC1c1cccc([N+](=O)[O-])c1,1.4373,231.848,352.501916,0.657721248
YAHJUN,CC(=O)Nc1ccc([N+](=O)[O-])c(C)c1[N+](=O)[O-],1.4622,178.554,271.4905201,0.657680423
HOHCIR,O=NN1[C@H](Cc2ccccc2)CO[C@@H]1c1ccc([N+](=O)[O-])cc1,1.4043,243.507,370.2515479,0.657679897
JABZOF,O=[N+]([O-])c1ccccc1/C=N/c1ccc2ccccc2c1,1.3587,221.899,337.4364104,0.65760242
JOLNED,CN(C)/N=N/c1ccc([N+](=O)[O-])cc1,1.3865,152.857,232.4485191,0.657595069
RUJSEV,O=[N+]([O-])c1ccccc1OCCCCOc1ccccc1[N+](=O)[O-],1.4201,255.37,388.3435312,0.657587882
ZUHRID,O=[N+]([O-])c1ccc(N2CCC(O)CC2)cc1,1.4018,173.008,263.1045759,0.65756363
CUNWEN,CC1(C)OC(=O)C(=NNc2ccc([N+](=O)[O-])cc2[N+](=O)[O-])C(=O)O1,1.5227,242.414,368.6646108,0.657546162
TEVSET,Cc1c(/N=C/c2cc([N+](=O)[O-])ccc2O)c(=O)n(-c2ccccc2)n1C,1.408,273.058,415.288173,0.657514511
ZUHXEF,Cc1cc(C)n(-c2ccc([N+](=O)[O-])cc2[N+](=O)[O-])n1,1.4442,198.127,301.3389988,0.657488744
QUDQEL,CC(OC(=O)c1ccc([N+](=O)[O-])cc1)c1cc2ccccc2o1,1.4091,241.035,366.6016649,0.657484739
LOZRAW,COc1cc(C2CCC(=O)N2Nc2ccc([N+](=O)[O-])cc2[N+](=O)[O-])cc(OC)c1OC,1.4571,323.774,492.4795453,0.657436442
ROFQIO,O=[N+]([O-])c1cc(N(O)[C@H]2CCCO2)on1,1.5304,153.412,233.3501296,0.657432675
WAJMUT,N#CCCn1c(COc2ccccc2[N+](=O)[O-])nc2ccccc21,1.3883,253.282,385.2843073,0.657389868
BILMAM,CNC1=C([N+](=O)[O-])[C@H](c2ccccc2)C(C#N)=C(c2ccccc2)O1,1.3718,265.048,403.2400448,0.65729583
DODKIQ,O=C(OCCCCOC(=O)c1ccc([N+](=O)[O-])cc1)c1ccc([N+](=O)[O-])cc1,1.4329,295.616,449.7615738,0.657272691
JEDXIC,Cc1cc2nc3n(c2cc1C)CCn1ccc([N+](=O)[O-])c1-3,1.411,218.221,332.0160514,0.657260392
HNAFPY10,CC(=O)c1cc(C2OCC(O)C([N+](=O)[O-])C2O)oc1C,1.453,214.127,325.8168651,0.65720048
GIJBEJ,Cc1cn(C(=O)C(=O)c2ccc([N+](=O)[O-])cc2)c2ccccc12,1.394,241.192,366.9993983,0.657199988
EZESUY,O=[N+]([O-])c1ccccc1-c1cc[nH]n1,1.4106,146.26,222.5597506,0.657171836
XARXUM,COC(=O)C(Nc1ccc([N+](=O)[O-])cc1)C(=O)OC,1.4381,203.421,309.5447269,0.657161897
MEKRAV,CC(=O)C1=C(C)NC(=O)C[C@H]1c1cccc([N+](=O)[O-])c1,1.396,214.265,326.047815,0.657158215
JELQEX,CCOc1c([N+](=O)[O-])c(=O)oc2ccccc12,1.454,176.405,268.4462372,0.657133442
CEVJAR,COc1cc(OC)c(OC)cc1/C=C(\C)[N+](=O)[O-],1.3837,199.596,303.7432929,0.657120683
FINNIA,O=[N+]([O-])c1ccc(O)c(/C=N/N2CCOCC2)c1,1.4366,190.722,290.2415843,0.65711466
VELQEK,O=[N+]([O-])c1ccccc1-c1nc(-c2ccccc2)c2ccccc2n1,1.3733,259.908,395.5316025,0.657110578
YITJUG,CCOC(=O)C1=C(C)NC(=O)/C1=C\c1ccc([N+](=O)[O-])cc1,1.408,234.117,356.2862962,0.657103578
CICMAD01,O=[N+]([O-])c1ccc(O)c(/C=N/Nc2ccccc2)c1,1.3999,200.37,304.9554371,0.657046819
MANNUL,O=C(Nc1ccccc1)/C(=C/c1ccc([N+](=O)[O-])cc1)c1ccccc1C(=O)O,1.3871,305.27,464.630303,0.657016983
KUGSEM,O=[N+]([O-])c1cccc(-c2cc3ccccc3n2-c2ccccn2)c1,1.3772,249.619,379.942165,0.656992098
ZENXUL,CCOC(=O)Nc1ccc(/C=C/c2ccc([N+](=O)[O-])cc2[N+](=O)[O-])cc1,1.4214,274.087,417.1899247,0.656983747
YALBIX,O=[N+]([O-])CC1OCCC2CC3OC21C1OC31,1.496,165.599,252.0641751,0.656971582
IVURAS,CC(=O)Oc1ccccc1C(=O)Oc1cccc(CO[N+](=O)[O-])c1,1.4336,251.924,383.4915712,0.65692187
BOPYIR,CCN(CC)c1ccc(-c2nc3cc([N+](=O)[O-])ccc3[nH]2)c(O)c1,1.3993,254.248,387.039649,0.656904275
KIRHIC,C#CCCCc1ncc(-c2ccc([N+](=O)[O-])cc2)cn1,1.3385,217.66,331.3765781,0.656835801
PITJIO,CC1(C)CC(=O)C2=C(C1)n1c(=O)c3ccccc3c(=O)n1C2c1ccc([N+](=O)[O-])cc1,1.4224,319.85,486.98691,0.656793834
SAQMIG,CC(C[N+](=O)[O-])(ON1OC(C)(c2ccccc2)CC1([N+](=O)[O-])[N+](=O)[O-])c1ccccc1,1.4366,328.064,499.5071318,0.656775408
BEGYUH,O=[N+]([O-])c1ccc(/N=N/N2CCN3CN(CCN(/N=N/c4ccc([N+](=O)[O-])cc4)C3)C2)cc1,1.4453,342.73,521.8401308,0.656772026
JIZJIL,Cc1ncc([N+](=O)[O-])n1C,1.4188,108.422,165.0930252,0.656732771
BURJAZ,O=C(O[C@]12CCC[C@H](CCC1)O2)c1cc([N+](=O)[O-])cc([N+](=O)[O-])c1,1.4713,249.106,379.3384109,0.65668541
EPANAM,CC1=CC(=O)C(C(C)C)=C/C1=N\NC(=O)c1ccc([N+](=O)[O-])cc1,1.3832,257.894,392.7260245,0.656676624
DAVXON,CC1=C([N+](=O)[O-])[C@](C)([N+](=O)[O-])[C@](C)(O)C(=O)[C@]1(C)[N+](=O)[O-],1.5026,219.944,334.9384274,0.656669949
YAGTIL,COc1ccc(/C=N/NC(=O)c2cccc([N+](=O)[O-])c2)c(O)c1,1.4207,241.844,368.2909941,0.656665528
GATXOR,CC1CC2C3OC(COC(=O)c4ccc([N+](=O)[O-])cc4)C(O3)C(OC(=O)c3ccc([N+](=O)[O-])cc3)C2O1,1.4766,379.673,578.1874511,0.656660741
SIVNAO,O=C1c2ccccc2C2(O)Oc3ccc4ccccc4c3C(c3ccc([N+](=O)[O-])cc3)C12,1.4243,323.906,493.3072969,0.656600869
GOXKAF,CC(=O)NN(C(=O)c1ccccc1O)c1ccc([N+](=O)[O-])cc1,1.4253,241.033,367.1023751,0.656582513
GIPRUU,N#C/C(=C\c1ccc([N+](=O)[O-])cc1)Cn1cnc2ccccc2c1=O,1.3888,260.693,397.0839684,0.656518572
UZEWUT,O=[N+]([O-])N1C(C([N+](=O)[O-])([N+](=O)[O-])[N+](=O)[O-])=N[C@@H]2CCCC[C@H]21,1.594,217.528,331.3449262,0.656500169
MAPFUF,CCOc1cccc(/C=N/c2ccc([N+](=O)[O-])cc2)c1O,1.3896,224.449,341.8897163,0.656495324
FENQEV,C=CCOC(=O)/C=C/c1cc([N+](=O)[O-])cc([N+](=O)[O-])c1,1.4356,211.146,321.6329641,0.656481218
OFUDAX,O=C(NN1CC(=O)N(NC(=O)c2ccc([N+](=O)[O-])cc2)CC1=O)c1ccccc1,1.4533,297.848,453.7452477,0.6564212
OJIJOG,O=[N+]([O-])c1ccc(NN=C2CCCCC2)c([N+](=O)[O-])c1,1.4314,211.778,322.63194,0.656407422
FOYNUC,O=[N+]([O-])c1cc2ccc3c(c2o1)CCCC3,1.4124,167.523,255.2201268,0.656386321
DEYNED,O=[N+]([O-])c1cc2c(c3ccccc13)OC1(c3ccccc3)CC2c2ccccc2O1,1.4073,306.025,466.2326638,0.656378293
MUQNUH,CN(C)c1cccc2c(C#Cc3cccc4c([N+](=O)[O-])cccc34)cccc12,1.3351,298.904,455.401705,0.656352396
XIFFEX,Cn1nc([N+](=O)[O-])c2c(c1=O)OCCCN2Cc1ccccc1,1.4297,240.992,367.1708383,0.656348421