name,smiles,Density,Vint,Veff,pc
VAXLAJ,CC(C)(C)OC(=O)Nc1ccc([N+](=O)[O-])cc1[N+](=O)[O-],1.4436,212.357,325.6327034,0.652136588
SEFQAX,CC1(C)Cc2c(c3ccccc3c3nc(-c4ccc([N+](=O)[O-])cc4)oc23)O1,1.3987,278.804,427.5401003,0.65211193
QAXJOO,COC(=O)C1=C(C)NC(=O)[C@@H](C(N)=O)[C@@H]1c1ccc([N+](=O)[O-])cc1,1.4342,251.502,385.6779801,0.652103602
VOXNOL,O=C(Cc1ccc([N+](=O)[O-])cc1)c1ccccc1,1.3491,193.5,296.7365704,0.652093538
KAMFAH,Cc1nc2cc([N+](=O)[O-])ccc2[nH]c1=O,1.4345,154.783,237.3676818,0.652081188
VINMAG,COc1ccc(/N=N/c2cccc3cccc([N+](=O)[O-])c23)cc1,1.3775,241.383,370.2091506,0.652017919
TOYNED,CN1c2ccccc2C(C)(C)c2nc3cc([N+](=O)[O-])ccc3nc21,1.3824,250.732,384.5510974,0.652012182
RUBYAQ,C=CCN(CC=C)C(=O)c1cc([N+](=O)[O-])cc([N+](=O)[O-])c1,1.3876,227.128,348.3544359,0.652002606
XUMRIH,C/C(Cc1ccccc1)=N\Nc1ccc([N+](=O)[O-])cc1[N+](=O)[O-],1.3982,243.227,373.0488907,0.65199765
FABRAD,CC(C)/N=C/c1cc([N+](=O)[O-])ccc1O,1.3626,165.339,253.5928416,0.651986069
LIQDEW,O=[N+]([O-])c1cnc(NCc2ccccc2)nc1,1.3924,178.891,274.397782,0.651940401
NIPPAG,CCN1C(=O)C(C#N)=C(C)/C(=N/Nc2cccc([N+](=O)[O-])c2)C1=O,1.4025,252.468,387.2918855,0.651880428
HACNUW,O=C(OCC1CC2CC(c3ccccc3)N1O2)c1cc([N+](=O)[O-])cc([N+](=O)[O-])c1,1.4438,299.218,459.0362259,0.651839622
CUMQEI,Cc1nn(-c2ccccc2)c(N)c1/N=N/c1ccccc1[N+](=O)[O-],1.389,251.019,385.1035696,0.651822055
LUHWEQ,Cc1nc2n(C34CC5CC(CC(C5)C3)C4)nc([N+](=O)[O-])c(=O)n2n1,1.4626,244.325,374.8374061,0.65181595
PILGEX,COc1ccc(C(=O)N/N=C/c2ccccc2[N+](=O)[O-])cc1,1.3866,233.465,358.1926007,0.651786217
TIXQUM,Cc1ccc([N+](=O)[O-])cc1N,1.372,119.957,184.0440771,0.651784083
KIVFIE,CN(C)c1ccc(/C(=N/Nc2ccc([N+](=O)[O-])cc2)n2cncn2)cc1,1.3786,275.678,422.9728315,0.651762902
EZEGEW,COc1cc(/C=N/c2ccc([N+](=O)[O-])cc2)cc(OC)c1OC,1.3815,247.638,379.967784,0.651734201
LILKAU,C/C(=N\Nc1ccc([N+](=O)[O-])cc1[N+](=O)[O-])C(=O)OCC(=O)c1ccccc1,1.4338,291.427,447.1577799,0.651731924
QIBJEQ,CCCC(=O)Oc1ccc([N+](=O)[O-])ccc1=O,1.4028,182.893,280.6301807,0.651722489
DUSNUB,O=[N+]([O-])c1ccccc1/C=N/Nc1ccccc1,1.3593,191.947,294.5236233,0.651720218
FUQBOI,Nc1ccc(Oc2ccc([N+](=O)[O-])cc2)cc1,1.3893,179.216,274.9966295,0.651702533
GACNOR,COc1ccc(CCNc2c([N+](=O)[O-])cc([N+](=O)[O-])cc2[N+](=O)[O-])cc1OC,1.4571,291.206,446.857435,0.651675405
VOPXIH,COc1ccc(/C=C/[N+](=O)[O-])cc1OC,1.3721,164.892,253.0279588,0.65167502
MIFWOO,Cc1[nH]nc2c1[C@H](c1ccc([N+](=O)[O-])cc1)CC(=O)N2,1.4167,207.834,318.9342948,0.651651464
ARIFUD,Cc1ncc([N+](=O)[O-])n1CCCO,1.4029,142.736,219.0775654,0.651531798
YIWRUU01,CC(=O)/C(=N\Nc1ccc([N+](=O)[O-])cc1O)C(=O)c1ccccc1,1.4023,252.352,387.3338196,0.65151037
RISFEF,O=C(/C=C/c1cc(O)c(O)c([N+](=O)[O-])c1)OCCc1ccccc1,1.3983,254.599,390.8222482,0.65144449
FUXNAN,CNc1ccc([N+](=O)[O-])cc1,1.3674,120.297,184.6632103,0.651439991
CECPEH,COc1ccc(Oc2ccc(-c3nc(C)n(C)c3[N+](=O)[O-])cc2[N+](=O)[O-])cc1,1.4255,291.49,447.4556703,0.651438834
LOLGAV01,O=[N+]([O-])c1ccccc1-n1cc(-c2ccccc2)nn1,1.3818,208.3,319.7662988,0.651413238
OGUBUO,Cc1cc([N+](=O)[O-])ccc1-c1nnn2c1COCC2c1ccccc1,1.3866,262.159,402.5418955,0.65125892
KEFYOK,Cc1cccc([N+](=O)[O-])c1N,1.3781,119.328,183.2294273,0.651249102
NINYOB,N#C/C(=C\c1ccc(OCc2ccncc2)cc1)c1ccc([N+](=O)[O-])cc1,1.3448,287.181,440.9719612,0.651245488
AWUYEX,COC1c2ccccc2C(OC)N1Nc1ccc([N+](=O)[O-])cc1[N+](=O)[O-],1.4454,269.418,413.7219164,0.65120553
QIKDUJ,O=[N+]([O-])c1ccc(N/N=C(/CN2CCOCC2)Cn2cnc(N3CCOCC3)c2[N+](=O)[O-])c([N+](=O)[O-])c1,1.47,381.918,586.4997551,0.651181858
YIHSIU,Cc1ccc(-n2nnc(C(=O)/C=C/c3ccc([N+](=O)[O-])cc3)c2C)cc1,1.3578,277.226,425.7562177,0.651137878
PUJVAS,COc1ccc2ccc(OC)c(C(=O)c3ccc([N+](=O)[O-])cc3)c2c1,1.381,263.929,405.3439496,0.651123571
MEWLIL,C=CCn1c(=O)[nH]c2cc([N+](=O)[O-])ccc21,1.4208,166.705,256.0376746,0.651095587
YAHMUR,COc1ccc(OC)c(C(=O)/C=C/c2cccc([N+](=O)[O-])c2)c1,1.3661,247.801,380.5911679,0.651094983
GEZKII,COc1ccc(-n2ccc(C=O)c2-c2ccc([N+](=O)[O-])cc2)cc1,1.3735,253.53,389.4223151,0.651041274
EZEGAS,COc1cc(/N=C/c2ccc([N+](=O)[O-])cc2)cc(OC)c1OC,1.3836,246.981,379.3910765,0.650993171
KUZVUX02,CCOC(=O)Cn1cc([N+](=O)[O-])nc1C,1.4134,162.969,250.3412138,0.650987496
LINVUZ,COc1ccc(/C=C(\C#N)[N+](=O)[O-])cc1,1.3547,162.82,250.1300871,0.650941284
EZETAF,COc1ccc(-n2nccc2-c2ccccc2[N+](=O)[O-])cc1,1.3746,232.052,356.4934562,0.650929199
ROFWEP,Cc1c(/N=C/c2ccc(O)c([N+](=O)[O-])c2)c(=O)n(-c2ccccc2)n1C,1.3883,274.157,421.181119,0.65092424
NORPUG,CC(C)COC(=O)c1cc([N+](=O)[O-])cc([N+](=O)[O-])c1,1.4298,202.658,311.3416364,0.650918401
WEFBAM,Nc1ccc([N+](=O)[O-])cc1NCc1ccccc1,1.3582,193.468,297.2265864,0.650910816
ZIXTOS,O=C(/N=C1\N[C@@H](c2ccccc2)CO1)c1ccc([N+](=O)[O-])cc1,1.4017,239.849,368.5503747,0.650790276
NUPJIR,CN(C)c1cccc2c(-c3c([N+](=O)[O-])cc([N+](=O)[O-])cc3[N+](=O)[O-])ccc(N(C)C)c12,1.4224,322.983,496.3278581,0.650745258
OXARAH,O=C(OCC12COC(C1)c1ccccc1C2=O)c1ccc([N+](=O)[O-])cc1,1.4218,268.338,412.3935503,0.650684279
IDUNEB,COc1ccc(C(=O)CC(O)c2ccccc2[N+](=O)[O-])cc1,1.3743,236.725,363.8204136,0.650664424
QUXTIO,O=[N+]([O-])c1ccc(/C=N/c2c(-c3ccccc3)nc3ccccn23)cc1,1.3653,270.745,416.1068253,0.650662242
EWACEK,O=[N+]([O-])c1ccc2c(c1)CN1CN2Cc2c1ccc1c2CN2CN1Cc1cc([N+](=O)[O-])ccc12,1.4453,341.013,524.1059531,0.650656605
HULDEA,O=[N+]([O-])c1cccc(-c2cc(Oc3ccccc3)nc(-c3ccccc3)c2)c1,1.3558,293.358,450.8729777,0.650644449
DEXVAE,O=C(COc1ccc([N+](=O)[O-])cc1)NCc1ccccc1,1.3777,224.357,344.8428176,0.650606562
LONWAN,COc1cccc(/C=C/c2ccc([N+](=O)[O-])cc2)c1,1.3334,206.673,317.6853874,0.650558723
XIZSAD,C/C(=N/Nc1c([N+](=O)[O-])c(C)nn1C)c1ccccn1,1.3834,214.047,329.0444253,0.650510945
YEBQON,CC12CCCC(/C=N/Nc3ccccc3[N+](=O)[O-])=C1C(=O)OC2c1ccoc1,1.4032,293.4,451.046594,0.65048712
DEJWEU,CCOC(=O)/C(=C(\C)O)c1ccc([N+](=O)[O-])cc1[N+](=O)[O-],1.4445,221.394,340.3562665,0.650477226
OWUXEK,CC(=O)C1C/C(c2ccc([N+](=O)[O-])cc2)=C\CCCOC1=O,1.3721,238.62,366.8432206,0.650468611
ADOLEK,O=[N+]([O-])c1ccc(NN=C2CCCCCCC2)c([N+](=O)[O-])c1,1.3922,237.519,365.1516563,0.650466719
WOZJAZ,COc1ccc(-c2[nH]c(-c3ccccc3)cc2-c2ccc([N+](=O)[O-])cc2)cc1,1.341,298.094,458.3450943,0.65037022
QEKBOX,CC(=O)OCC1OC(n2cnc3c(N)cc([N+](=O)[O-])nc32)C(OC(C)=O)C1OC(C)=O,1.4725,320.6,492.9566119,0.650361497
KERBOZ,CN(C)c1ccc(/C=N/OC(=O)/C=C/c2cccc([N+](=O)[O-])c2)cc1,1.3577,269.744,414.7792863,0.650331414
VINZAW,Cc1cc(C)c(-c2c3ccccc3c(/C=C/c3ccc([N+](=O)[O-])cc3)c3ccccc23)c(C)c1,1.3125,364.647,560.7305686,0.650306975
AGAXUD,O=[N+]([O-])c1ccc(Cc2ccncc2)cc1,1.3485,171.419,263.6200685,0.650250192
COCSOF,COC(=O)C1=C(C)NC2=C(C(=O)CCC2)C1c1ccccc1[N+](=O)[O-],1.4056,262.821,404.1883053,0.65024395
YAHQUV,Cc1ccc(Oc2ccc([N+](=O)[O-])cn2)cc1,1.3814,179.832,276.5692903,0.650224036
FAHZUJ,COc1ccc(-c2nc(-c3ccc([N+](=O)[O-])cc3)[nH]c2-c2ccc(OC)cc2)cc1,1.3688,316.432,486.6518305,0.650222562
ATUJIK,O=[N+]([O-])c1ccc(NCCN2CCOCC2)c2nonc12,1.4455,218.936,336.7294764,0.65018365
OCOMOK,O=C(O)CCNc1ccc([N+](=O)[O-])cc1,1.4101,160.837,247.3813011,0.650158275
WOGVIY,COc1ccc(/N=C/c2ccc([N+](=O)[O-])cc2)cc1OC,1.3684,225.716,347.1864584,0.650129043
ZARXUL,O=[N+]([O-])c1ccc(N2N=C(c3ccccc3)N(c3nnnn3-c3ccccc3)N=C2c2ccccc2)cc1,1.3897,389.325,598.8605767,0.650109583
TEHGUI,Cc1ccc(N)c([N+](=O)[O-])c1,1.3776,119.159,183.2959305,0.650090811
ROQBAD,O=C1CCN2C(c3ccccc3)ON=C(c3ccc([N+](=O)[O-])cc3)N12,1.4149,257.915,396.8134562,0.649965358
CECCEU,O=[N+]([O-])c1cccc2c1-c1ccccc1NC2,1.381,176.689,271.8456643,0.649960707
MUXKUM,O=C1OCC(Cc2ccc([N+](=O)[O-])cc2)C1C(=O)c1ccccc1,1.3837,253.577,390.1516185,0.64994476
SUJTID,COc1ccc(/C=C/C(=O)/C(C)=C/c2ccc([N+](=O)[O-])cc2OC)cc1,1.3376,284.916,438.398304,0.649902149
MIMYUF,N#Cc1c(N)nc2c(ccc3ccccc32)c1-c1ccc([N+](=O)[O-])cc1,1.361,269.679,414.9621308,0.649888219
XAKLOL,CN(C)CCN(Cc1c2ccccc2cc2ccccc12)c1ccc([N+](=O)[O-])cc1,1.3179,326.891,502.9992266,0.649883703
KACSEN,CC1(C)c2ccc([N+](=O)[O-])cc2C(=O)OC1O,1.4349,178.292,274.3522319,0.649865317
MOSSUJ,COc1cc(C(C)=O)c([N+](=O)[O-])cc1OCc1ccccc1,1.3741,236.457,363.8733677,0.649833214
BEBHIC,O=[N+]([O-])c1ccc(-c2cc(-c3ccccc3)nc3ccc4ccccc4c23)cc1,1.3437,302.055,464.8260979,0.649823668
FESNEW16,COc1ccc([N+](=O)[O-])cc1[N+](=O)[O-],1.5965,222.367,568.2522839,0.649821656
KENCEM,CC(=O)NCCc1c[nH]c2cccc([N+](=O)[O-])c12,1.3838,192.682,296.521972,0.649806821
DATGEL,Cc1ccc([N+](=O)[O-])c(N)c1C,1.3472,133.019,204.7081817,0.649798161
CNOXPA,CC1=C(C#N)C(C)(C)C(=O)/C(=C/[N+](=O)[O-])N1,1.3694,174.199,268.0922421,0.649772625
ELIHUC,CC1=C(C(=O)OC(C)C)C(c2cccc([N+](=O)[O-])c2)C2=C(N1)C(=O)NC2=O,1.4497,276.214,425.1004673,0.649761694
OWACIZ,O=C1/C(=C/c2ccccc2[N+](=O)[O-])CCC/C1=C\c1ccccc1[N+](=O)[O-],1.3817,284.317,437.6017177,0.649716371
NERGOJ,CCOC(=O)c1nn(-c2ccccc2)c(-c2ccc([N+](=O)[O-])cc2)c1C=O,1.392,282.982,435.5510085,0.649710354
HUYGIT,COc1ccc(/C(C#N)=C/C=C/c2ccc([N+](=O)[O-])cc2)cc1,1.3206,250.075,384.9086737,0.649699571
IDOWOO,COC(=O)C1=C(N)Oc2ccc3ccccc3c2C1c1cccc([N+](=O)[O-])c1,1.402,289.414,445.478954,0.6496693
VOFDIF,O=C(NCCc1ccc(O)cc1)Nc1ccc([N+](=O)[O-])cc1,1.3934,233.131,358.8467408,0.649667319
TEWJAG,Nc1c([N+](=O)[O-])c(N2CCCCC2)c([N+](=O)[O-])c(N2CCCCC2)c1[N+](=O)[O-],1.4584,291.549,448.8084427,0.649606764
RIVZAA,O=C(/C=C/c1cccc([N+](=O)[O-])c1)c1c2ccccc2cc2ccccc12,1.341,284.043,437.2606145,0.649596581
FIQMUP,Cc1ncc2c(c1Oc1ccc([N+](=O)[O-])cc1[N+](=O)[O-])COC(C)(C)OC2,1.4429,280.404,431.7015059,0.649532133
ZIQCUZ01,Cc1ccc(-c2ccc(C(=O)/C=C/c3cccc([N+](=O)[O-])c3)cc2)cc1,1.3168,281.04,432.7054014,0.649495012
CEMXAW,COc1cccc(/C=C/C(=O)c2cccc([N+](=O)[O-])c2)c1OC,1.3626,247.808,381.5687616,0.649445198
SOBWAI,O=[N+]([O-])/C(=C/c1ccccc1)C1=[N+]([O-])O[C@H](c2ccccc2)C1,1.3663,244.763,376.8896652,0.649428792
SAGNAS,O=C(/C=C(/c1ccccc1)c1cccc([N+](=O)[O-])c1)Nc1cccc2cccnc12,1.3539,314.733,484.6354103,0.649422212
NELMUN,CNc1c(OC)cc([N+](=O)[O-])c2cc([N+](=O)[O-])c(OC)c(N(C)C)c12,1.4268,264.631,407.4948462,0.64940944
PONQOZ,CCNc1ccc(C(=O)OCC)cc1[N+](=O)[O-],1.3656,188.02,289.5292544,0.649398972
RAPHEY,O=[N+]([O-])c1ccc(O)c(/C=N/c2ccccc2Oc2ccccc2)c1,1.3755,261.922,403.3433295,0.649377294
CAJTEM,O=[N+]([O-])c1ccc2ncc(-c3ccccc3)n2c1,1.3809,186.68,287.4927747,0.649338058
BOWSIP,CC(=O)/C(C)=N/Nc1ccc([N+](=O)[O-])cc1,1.3709,173.888,267.7989033,0.649323048
HAGYUK,O=[N+]([O-])c1ccc(Oc2ccc3ccccc3c2-c2c(Oc3ccc([N+](=O)[O-])cn3)ccc3ccccc23)nc1,1.4076,406.073,625.4061143,0.649294899
VELKIH,O=C(/C(=N\c1ccc([N+](=O)[O-])cc1)c1ccccc1)c1ccccc1,1.3389,265.828,409.4142913,0.649288522
LATWOT,COC(=O)c1cc(C)cc(NC(=O)c2cc(C)cc([N+](=O)[O-])c2OC)c1OC,1.3905,300.956,463.5194397,0.649284527
HEYLEF,Cc1cnc(-c2ccccc2)nc1-c1cccc([N+](=O)[O-])c1,1.3444,233.442,359.5670557,0.64923078
ZACCOV,COC(=O)C12N=NC(C)(C)C1CC=CC2OC(=O)c1cc([N+](=O)[O-])cc([N+](=O)[O-])c1,1.4355,314.017,483.6764591,0.649229447
ICEPOY,CC12CC(c3ccccc3[N+](=O)[O-])OOC1(O)C(=O)c1ccccc1C2=O,1.4365,277.002,426.6636303,0.649228058
MIYZUQ,C=C(C)c1[nH]nnc1-c1ccc([N+](=O)[O-])cc1,1.3687,181.231,279.1491719,0.649226357
TEFVEG,Cc1cc2c(c(=O)o1)[C@H](c1cccc([N+](=O)[O-])c1)C(C#N)=C(N)O2,1.4244,246.033,378.9743239,0.64920757
VUXWUI,CCOc1cccc2cc(-c3ccc([N+](=O)[O-])cc3)c(=O)oc12,1.3942,240.544,370.5195854,0.649207247
TICYIN,C#Cc1ccc(/C=C\c2ccc([N+](=O)[O-])cc2)cc1,1.2925,207.747,320.0159009,0.649177117
JAYDET,O=C1C=CC([N+](=O)[O-])=C/C1=C/N[C@H](CO)Cc1ccccc1,1.3645,237.085,365.2358654,0.649128474
ZANZOF,COc1ccc(-c2ccc([N+](=O)[O-])cc2)cc1OC,1.3655,204.522,315.0755407,0.649120524
FENDEH,O=c1c2cc([N+](=O)[O-])ccc2n2n1CCCCC2,1.4145,188.297,290.0863237,0.649106782
LIYSOE,CCN(CC)c1ccc(/C=N/c2cc([N+](=O)[O-])ccc2N)c(O)c1,1.3487,262.257,404.0422401,0.649083125
NAMPOH,CCOC(=O)c1cc([N+](=O)[O-])ccc1O,1.4324,158.801,244.6707826,0.64903949
URUVEL,O=C1C([N+](=O)[O-])=CC=C/C1=C/NCCN1CCOCC1,1.3917,216.155,333.0529835,0.64901085
FACYAK,O=C(Nc1ccccc1)c1ccccc1[N+](=O)[O-],1.3718,190.177,293.0310669,0.648999446
OCEKIS,CCOc1ccccc1N/N=N/c1cccc([N+](=O)[O-])c1,1.3724,224.669,346.1881404,0.648979482
YERTOF,COc1cccc(/C=N/c2c(C)n(C)n(-c3ccccc3)c2=O)c1OCCOc1ccc([N+](=O)[O-])cc1[N+](=O)[O-],1.4022,420.533,648.0038663,0.648966807
ZULYEK,Cc1[nH]c2ccccc2c1-c1ccc([N+](=O)[O-])cc1,1.3513,201.043,309.7909057,0.648963531
VAGTED,CCN/C(N)=N/[N+](=O)[O-],1.4212,100.142,154.3109226,0.648962486
POJHOM,O=[N+]([O-])c1ccc(-c2c(-c3nc4ccccc4[nH]3)cc3ccccn23)cc1,1.3768,277.17,427.104771,0.64895084
RABPIP,COC(=O)/C(=C/[N+](=O)[O-])NC(=O)c1ccccc1,1.4028,192.094,296.0136355,0.648936322
HOLJUQ01,O=[N+]([O-])c1ccc(/C=C/c2ccc(-n3c4ccccc4c4ccccc43)cc2)cc1,1.3327,315.456,486.1268225,0.648917084
XITMAP,COC(=O)C1=C(C)N(c2ccccc2OC)C(C)=C(C(=O)OC)C1c1ccccc1[N+](=O)[O-],1.3819,352.586,543.3491264,0.648912426
JULHAZ,C/C(=N/N=C(\C)c1ccccc1[N+](=O)[O-])c1ccccc1[N+](=O)[O-],1.3711,256.284,394.9559909,0.64889255
IZUFEO,O=[N+]([O-])C1=Cc2ccccc2NC1(c1ccccc1)c1ccccc1,1.3415,263.555,406.1707251,0.64887739
ERAWEB,Cn1cc([C@H]2[C@@H]3[C@@H]4C[C@H]2O[C@@H]43)c2c([N+](=O)[O-])cccc21,1.4044,207.233,319.3739636,0.648872556
HEDFOO,O=[N+]([O-])C1=C(c2ccccc2)c2ccccc2C1,1.3401,190.624,293.779085,0.64886852
ACEREG,Cc1cc(=O)n(CC(=O)c2cccc([N+](=O)[O-])c2)c2c1CCCC2,1.3714,256.227,394.9000486,0.648840133
EQASOG,Cn1nc(-c2ccccc2)c2cc([N+](=O)[O-])ccc21,1.3676,199.39,307.307079,0.648829831
RUFBOK,Cc1ccc(C(=O)/C(=C/c2c3ccccc3cc3ccccc23)n2cnc([N+](=O)[O-])c2)cc1,1.3493,345.874,533.0739424,0.648829313
XEYGOZ,CCOC(=O)C1=C(c2ccccc2)OC2(c3ccc([N+](=O)[O-])cc3)OC(N)=C(C#N)C12,1.4077,320.784,494.4071518,0.648825566
GOZFIM,CN1Cc2ccccc2N[C@H]1c1ccccc1[N+](=O)[O-],1.3636,212.64,327.7315475,0.648823714
YERTUL,COc1cc(/C=N/c2c(C)n(C)n(-c3ccccc3)c2=O)ccc1OCCOc1ccc([N+](=O)[O-])cc1[N+](=O)[O-],1.405,419.59,646.7124708,0.64880456
FOCXUR01,O=[N+]([O-])c1ccccc1[C@H]1NCc2ccccc2N1,1.3773,199.554,307.5730412,0.648801986
MASNUS,O=C1C=CC2(CC(OC(=O)/C=C/c3ccc([N+](=O)[O-])cc3)C(c3ccccc3)O2)O1,1.4044,312.292,481.3664863,0.648761409
CIZVEP,CN(C)c1ccnc(-c2cccc([N+](=O)[O-])c2)c1,1.3452,194.69,300.0989813,0.648752619
RUCBAV,CC1(C)Cc2ccc([N+](=O)[O-])cc2C2(c3cc([N+](=O)[O-])cc([N+](=O)[O-])c3)ON12,1.4566,285.545,440.1584681,0.648732265
WAWBAY,COCCn1cnc2ccc([N+](=O)[O-])cc21,1.3974,170.434,262.7204212,0.648727645
HOWJEI,O=[N+]([O-])C1C[C@@H]([N+](=O)[O-])C2(OCCO2)[C@H]([N+](=O)[O-])C1,1.5477,192.82,297.2649044,0.648647039
QIYJIR,N#C/C=C1\CCC[C@@H]1OC(=O)c1ccc([N+](=O)[O-])cc1,1.3778,212.706,327.9253601,0.648641508
WUFNUI,O=C(CCc1ccccc1[N+](=O)[O-])ON(C(=O)c1ccccc1)c1ccccc1,1.3631,308.244,475.2665849,0.648570739
ANUDAQ,CCOc1cc(N(CC)CC)ccc1/C=C(\C#N)c1ccc([N+](=O)[O-])cc1,1.3071,300.893,463.9337828,0.64856885
JAXNEE,COc1cc(C2CC(=O)CC(O)C2[N+](=O)[O-])cc2c1OCO2,1.4541,228.911,352.9786843,0.648512248
UNUHIV,COc1ccccc1/C=N/NC(=O)c1ccc([N+](=O)[O-])cc1,1.378,233.734,360.4280552,0.648490029
GORLUW,COc1cc(/C=C/c2nc3ccc([N+](=O)[O-])cc3c(-c3ccccc3)c2C(C)=O)ccc1O,1.3618,348.047,536.7101412,0.64848225
MUDWEO01,O=[N+]([O-])c1cc([N+](=O)[O-])c(Nc2ccccc2)cc1Nc1ccccc1,1.401,269.099,414.9739894,0.648471969
HUHYAK,O=C(c1cccc([N+](=O)[O-])c1)C1CC1,1.3578,151.524,233.665723,0.648464816
LIVWET02,O=C(Cn1ccnc1[N+](=O)[O-])NCc1ccccc1,1.3939,200.926,309.8550938,0.648451499
AWENIB02,O=C(Oc1ccccc1)c1cc([N+](=O)[O-])ccc1O,1.4157,197.036,303.8604429,0.648442417
BOVSOX,CC(=O)Oc1ccc(/N=C/c2ccc([N+](=O)[O-])cc2)cc1,1.3705,223.185,344.2121571,0.648393717
KIBFUZ,CC(=O)C1C(c2ccc([N+](=O)[O-])cc2)C2CCCN2C12C(=O)c1ccccc1C2=O,1.396,311.69,480.7380161,0.648357296
TUMYAD,O=C(OCC1CC(COC(=O)c2ccc([N+](=O)[O-])cc2)C2C1CC1OC12)c1ccc([N+](=O)[O-])cc1,1.4277,363.579,560.7825731,0.648342187
VEZTUQ,O=[N+]([O-])c1ccc(/C=C/c2c3ccccc3cc3ccccc23)cc1,1.3282,263.527,406.4735196,0.648325136
TEJQII,COC(=O)C1=C(C)NC2=C(C(=O)CC(C)(C)C2)C1c1cccc([N+](=O)[O-])c1,1.3702,290.835,448.6030206,0.648312621
PIRYIA,CC1(C)C(c2ccccc2[N+](=O)[O-])=NC23C=CC(=O)C=C2C1c1c(c2ccccc2oc1=O)O3,1.417,345.007,532.1847827,0.648284226
PUNVIG,O=C(c1ccccc1O)C1C(=O)N2CCCc3cccc(c32)C1c1ccc([N+](=O)[O-])cc1,1.3913,331.244,511.0074538,0.648217551
YAYCIM,O=[N+]([O-])c1ccc(N2CCOCC2)cc1,1.396,160.446,247.5255057,0.648199867
HIYDIC,CN(C(=O)/C=C/c1ccccc1)c1ccccc1[N+](=O)[O-],1.3318,228.001,351.7465044,0.648196918
JACTEQ,CN1CC(C(=O)c2ccccc2)=C(c2ccc([N+](=O)[O-])o2)C12C(=O)c1ccccc1C2=O,1.3971,329.824,508.8427805,0.648184494
LANLOC,CC(C)OC(=O)c1cc([N+](=O)[O-])cc([N+](=O)[O-])c1,1.4362,190.388,293.7487001,0.64813223
YEJFEA,CC(=O)Oc1ccc(/C=C/C(=O)OC2COC3C(O[N+](=O)[O-])COC23)cc1OC(C)=O,1.4739,319.174,492.463059,0.648117649
WIPFUX,Cc1ccccc1NC(=O)c1ccccc1[N+](=O)[O-],1.3498,204.187,315.0499377,0.648109952
BAPZOK,O=C(Oc1ccccc1)c1cccc([N+](=O)[O-])c1,1.3887,188.349,290.6416604,0.648045431
WIGTOX,CC(=O)Cn1c([N+](=O)[O-])cnc1C,1.3994,140.776,217.23362,0.648039654
JULWAO20,CC1(/N=N/c2ccc([N+](=O)[O-])cc2)C(=O)c2ccccc2C1=O,1.3865,239.884,370.1766114,0.648025814
HAWLUN,COc1ccc(/C=C(\C(=O)NCc2ccccc2)[N+](=O)[O-])cc1,1.3502,248.739,383.8627893,0.647989352
LIPJOL,O=[N+]([O-])c1ccccc1C1Nc2ccccc2C2OCCCC12,1.3718,243.256,375.4226356,0.647952406
FOKTUU,O=C1N[C@@H](c2ccc([N+](=O)[O-])cc2)N[C@@H]2CCCC[C@H]12,1.3887,213.172,328.9953783,0.647948312
SITDUX,O=C(c1ccccc1[N+](=O)[O-])N1CCc2ccccc2C1,1.3728,221.099,341.2412547,0.647925762
BURFIF,O=C(NC1C(O)CC(=O)N1Cc1ccccc1)c1ccc([N+](=O)[O-])cc1,1.3989,273.121,421.5504986,0.64789628
CAVDUB,COc1ccc(/C=C(\C)C(=O)/C=C/c2ccc([N+](=O)[O-])cc2)cc1,1.3219,262.984,405.9051575,0.647895192
VOZJOL,Cc1cc2c(cc1C)C(=O)/C(=C/c1ccc([N+](=O)[O-])cc1)O2,1.3649,232.602,359.0132983,0.647892435
ACNTBP,CC(=O)c1ccc(-c2ccccc2[N+](=O)[O-])cc1,1.3378,193.875,299.2430163,0.647884794
XIDPEF,CC(=O)N1CCc2cc([N+](=O)[O-])ccc21,1.3921,159.259,245.8145374,0.647882756
GADFID,CN(C)/C=C/c1ncn(C)c1[N+](=O)[O-],1.3664,154.401,238.3175206,0.647879349
RUTQOO,O=[N+]([O-])c1ccc(/N=C/c2ccc(OCc3ccccc3)cc2O)cc1,1.3632,274.702,424.0559992,0.647796519
XALNEF,CCOC(=O)C1=CC[C@@H]2C(=O)N(c3ccccc3[N+](=O)[O-])C(=O)[C@H]12,1.4282,248.621,383.7974094,0.647792283
XEKLOR,O=[N+]([O-])c1ccccc1CN1CN1Cc1ccccc1[N+](=O)[O-],1.386,243.778,376.3325823,0.647772772
ECEREL,CC(C)(C)OC(=O)C(c1ccc([N+](=O)[O-])cc1[N+](=O)[O-])c1ccc([N+](=O)[O-])cc1[N+](=O)[O-],1.4602,330.089,509.582714,0.647763338
XISJUF,CC(=O)OC(OC(C)=O)c1cccc([N+](=O)[O-])c1,1.4109,192.931,297.8447607,0.647756904
IXETEL,CCOC(=O)C(Nc1ccccc1[N+](=O)[O-])Nc1ccccc1[N+](=O)[O-],1.4201,272.761,421.0926399,0.647745826
GEVYIP,COc1ccc(C2=C(c3ccc([N+](=O)[O-])cc3)OC(=O)N(C)N2C)cc1,1.3869,275.393,425.197918,0.647681911
IZALOK,CC(C(=O)O)c1ccc([N+](=O)[O-])c(CC(=O)O)c1,1.4296,190.379,293.9487778,0.647660458
INECIN,O=C(/C(=N\Nc1ccc([N+](=O)[O-])cc1)c1ccccc1)c1ccccc1,1.3451,275.938,426.0589499,0.647652162
XIGQAG,CN(CCN(C)c1ccc([N+](=O)[O-])cc1[N+](=O)[O-])Cc1c2ccccc2cc2ccccc12,1.3607,351.058,542.0775347,0.647615844
YAMPAG,CCCc1nc2c([N+](=O)[O-])c(O)c3ccccc3c2o1,1.4129,207.092,319.778867,0.647610025
NIJHOD,COC(=O)C1C(CCOC(=O)c2ccc([N+](=O)[O-])cc2)C1C(C)(C(=O)OC)C(=O)OC,1.3954,336.893,520.2104949,0.647609003
SAQVAG,C[C@H]1CC=CC(=O)N1C(=O)c1ccc([N+](=O)[O-])cc1,1.3863,201.741,311.5403313,0.647559817
CACRAA,Cc1c(C(=O)c2ccccc2)c(=O)c2cc([N+](=O)[O-])ccc2n1-c1ccccc1,1.3654,302.488,467.1559529,0.647509677
EKAHIJ,O=[N+]([O-])c1ccc(C2=NOC3(c4ccc([N+](=O)[O-])cc4)C4CCCCC4ON23)cc1,1.4315,308.049,475.7594456,0.647488984
ANOQUR,N#C[C@@H](CC1=CCCCC1=O)c1ccccc1[N+](=O)[O-],1.3421,216.386,334.1992359,0.647476046
PEVNOV,CCOC(=O)C1(C(=O)c2ccc([N+](=O)[O-])cc2)Cc2ccccc2C1,1.37,266.133,411.0417394,0.647459794
XEBNOJ,COC(=O)C1C(=O)CC(C)(O)C(C(=O)OC)C1c1cccc([N+](=O)[O-])c1,1.4159,277.242,428.2106343,0.647443052
XEXPEX,CC1(C)CC(=O)C2=C(C1)Oc1c(c(=O)oc3ccccc13)C2c1cccc([N+](=O)[O-])c1,1.3986,320.652,495.2606368,0.647440915
HOJTAD,O=C(OCc1nnn(Cc2ccccc2)c1C(O)COCc1ccccc1)c1ccc([N+](=O)[O-])cc1,1.3767,381.228,588.8388261,0.647423341
RIRZAU,COC(=O)C(O)(Cc1ccccc1[N+](=O)[O-])C1CCCC1=O,1.3955,236.598,365.4457458,0.647423052
DEJWIY,CCOC(=O)/C(=C(/C)O)c1c([N+](=O)[O-])cc([N+](=O)[O-])cc1[N+](=O)[O-],1.4859,246.739,381.1473503,0.647358561
KEDXAS,CC(=O)OC1C([N+](=O)[O-])C(O)(C(C)C)C=C([N+](=O)[O-])C1(C)[N+](=O)[O-],1.4604,255.498,394.6784533,0.647357356
LOLCOG,O=[N+]([O-])c1ccc(O)c(/C=N/C(c2ccccc2)C(O)c2ccccc2)c1,1.3534,287.629,444.3235752,0.647341298
BUGTIJ,O=[N+]([O-])C1C=C2c3ccccc3C(c3ccccc32)C([N+](=O)[O-])C=C2c3ccccc3C1c1ccccc12,1.3768,388.935,600.8433351,0.647315161