name,smiles,Density,Vint,Veff,pc
YOHDUW,Cc1cccc([N+](=O)[O-])c1C,1.2872,122.928,194.8848379,0.630772518
IGOTII,C=C(c1ccccc1)C1([N+](=O)[O-])CCC(C)(O)C(C=O)C1,1.3041,232.216,368.1708583,0.630728899
UKEQOR,CC(=O)C(CN1C(=O)c2ccccc2C1=O)C(O)c1ccc([N+](=O)[O-])cc1,1.3592,283.651,449.7264926,0.630718903
TAPLUU,Cc1cccc(OCc2onc(-c3ccc([N+](=O)[O-])cc3)c2-c2ccccc2)c1,1.3185,306.712,486.3116622,0.630690201
LEBJEH,CC1=NOC2(/C=C/c3ccccc3)C(c3onc(C)c3[N+](=O)[O-])C(c3ccccc3)C12[N+](=O)[O-],1.3582,354.807,562.5869791,0.63067048
JUMFAA,CC(=O)N1CC([N+](=O)[O-])([N+](=O)[O-])C1,1.5485,222.497,585.8668204,0.630652745
PEVNUB,CCOC(=O)c1cc2ccccc2cc1-c1ccc([N+](=O)[O-])cc1,1.3213,254.481,403.5562244,0.630596147
CACBOB,C/C(=N\c1c(C)n(C)n(-c2ccccc2)c1=O)c1cc(C)cc([N+](=O)[O-])c1O,1.3355,298.071,472.6877759,0.630587494
TUTFAQ,COC(=O)/C(=C/c1c(C)cc(C)cc1C)c1ccccc1[N+](=O)[O-],1.2908,263.759,418.2779797,0.63058304
CIZTUD,CN(C)C1=CC(c2cccc([N+](=O)[O-])c2)=NN(c2ccccc2)C(c2ccccc2)=C1,1.2953,331.584,525.8514651,0.630565896
ZOXYOA,C[C@@H]([C@@H](c1ccccc1)[C@@H](C)[N+](=O)[O-])[N+](=O)[O-],1.323,188.445,298.851965,0.630563028
PABPUD,CN(C)CCCNc1c([N+](=O)[O-])cnc2ccccc12,1.3072,219.598,348.2572106,0.63056268
CETMET,O=C(OC12CCC13CCC31CCC13CCC31CCC12)c1cc([N+](=O)[O-])cc([N+](=O)[O-])c1,1.3685,324.549,514.6991616,0.630560576
HIHMIU,C=CC(=O)OCCCCCCOc1ccc(C(=O)Oc2ccc(-c3nc4ccc([N+](=O)[O-])cc4o3)cc2)cc1,1.332,416.769,660.9598361,0.630551173
CAYTOO,O=[N+]([O-])c1ccc(OCCN2CCN(c3ccccn3)CC2)cc1,1.3331,257.744,408.7703619,0.630534951
INIFOC,C=CCC12C(CCOC1c1ccccc1)CON2C(=O)C[N+](=O)[O-],1.3453,258.5,409.9807257,0.630517446
GAWGUH,Cc1ccccc1/N=C/C=C/c1ccccc1[N+](=O)[O-],1.2755,218.431,346.4483255,0.630486522
TELWIQ,O=C1NCCCC/C1=N\OCc1ccc([N+](=O)[O-])cc1,1.3572,213.755,339.0529389,0.630447271
HIPSUU,Cc1ccc(N2CC3C4(C=CC([N+](=O)[O-])(O4)C3(C)C)C2)cc1,1.3223,237.639,376.9377296,0.630446308
LETJID,COC(=O)C1(C#N)C(C)(c2ccccc2)N=NC1(C)c1ccc([N+](=O)[O-])cc1,1.3276,298.177,472.9793131,0.630422921
SIHCIW,CCCOc1ccc(C(=O)OC)cc1[N+](=O)[O-],1.3509,185.273,293.8894116,0.630417404
AZECIU,Cc1noc(C2N3C(=O)CCN3C(c3ccccc3)C23C(=O)N(Cc2ccccc2)c2ccccc23)c1[N+](=O)[O-],1.3566,412.982,655.1151081,0.630396086
LESKAW,N#[N+][N-]C1C=CC(OCc2ccccc2)C(OCc2ccccc2)C1OC(=O)c1ccc([N+](=O)[O-])cc1,1.3387,391.117,620.4389423,0.630387575
IQOROW,COC1CC(C[N+](=O)[O-])=C2OC(c3ccccc3)OCC2O1,1.3777,233.326,370.1673356,0.630325741
BOWFAV,CC(c1ccc([N+](=O)[O-])cc1)N1CCC(C)(O)C([N+](=O)[O-])C1c1ccccc1,1.333,302.437,479.8221739,0.630310595
JIRZIW,CC12CCC(=O)CC1C(COC(=O)c1ccc([N+](=O)[O-])cc1)C1CC12,1.3362,268.793,426.4493039,0.630304699
CARJUB,COC(=O)C(OC(C)C)(c1ccccc1)C(O)c1ccccc1[N+](=O)[O-],1.3244,283.815,450.3040737,0.630274112
HEVZEP,CC(NC(=O)OC(C)(C)C)C(=O)Nc1cccc([N+](=O)[O-])c1,1.3379,241.825,383.6948808,0.630253392
VONTAW,COc1ccc([N+](=O)[O-])cc1/C=C/C1=Nc2ccccc2C1(C)C,1.2954,260.253,412.9473302,0.630232916
NAZXIX,COC(=O)/C(=C/Nc1ccc(OC)cc1)C(c1cccc([N+](=O)[O-])c1)C(C#N)C(=O)C(C)(C)C,1.2999,374.506,594.2722441,0.630192649
HOGSED,O=C(/C=C/c1ccccc1)C1C(c2ccccc2)ON(c2ccccc2)C1c1ccc([N+](=O)[O-])cc1,1.2989,383.641,608.7719548,0.63018836
SAHCOV,COc1c(O)ccc(/C=N/c2cc(C)cc(C)c2)c1[N+](=O)[O-],1.3166,238.54,378.5237264,0.630185067
RARNUU,C=CCOc1ccc([N+](=O)[O-])cc1C(c1cc([N+](=O)[O-])ccc1OCC=C)c1cc([N+](=O)[O-])ccc1OCC=C,1.3484,424.638,673.8448289,0.630171787
PIMKIF,O=[N+]([O-])OC[C@H]1CC[C@H](CO[N+](=O)[O-])CC1,1.4133,173.323,275.0455388,0.630161102
REBHOW,Cc1cccc(-c2nc3ccccc3[nH]2)c1[N+](=O)[O-],1.3354,198.322,314.7170595,0.630159675
PASJUP,CC[C@](C)([N+](=O)[O-])[C@](C)(CC)[N+](=O)[O-],1.3132,162.645,258.1074765,0.630144474
MUBHAT,CCN(CC)c1nc(N/N=C(\C)c2ccc([N+](=O)[O-])cc2)nc(N(CC)CC)n1,1.2998,322.211,511.33081,0.630141962
BAPWOG,CC1(COC(=O)c2ccc([N+](=O)[O-])cc2)CCc2ccccc2C1OC(=O)c1ccc([N+](=O)[O-])cc1,1.3662,375.392,595.7564958,0.630109789
QECQUN,CC1=NN(C(N)=C([N+](=O)[O-])[N+](=O)[O-])[C@](C)(O)C1,1.4394,178.153,282.7381104,0.630098998
SAPFUN,CN(C)c1ccc(/C=N/c2cc([N+](=O)[O-])ccc2N)cc1,1.3088,227.143,360.49957,0.630078422
JOSMAI,O=C1C2CCCC1(O)C([N+](=O)[O-])C2c1ccccc1,1.3591,201.007,319.0220288,0.630072477
BIMPUJ,CCCCN1c2nc3ccccc3cc2N(CCCC)c2c1nc1cc([N+](=O)[O-])ccc1c2[N+](=O)[O-],1.3471,377.613,599.3514211,0.630036047
EPIVOR,Cc1ccc(CCNc2nc3c(cc2[N+](=O)[O-])C(=O)c2ccccc2-3)cc1,1.3258,283.395,449.8161728,0.630024035
DUVVAS,C=C1CC(C(=O)OC)(C(=O)OC)C2CCCCC12[N+](=O)[O-],1.3583,228.842,363.2478294,0.629988623
POBTEF,O=C(O)CCC(=O)OC1CC2CC1C(C(=O)c1ccccc1)([N+](=O)[O-])C2c1ccccc1,1.3484,339.154,538.3618057,0.629974111
XAHBEN,O=C(OCCCCCCOC(=O)c1ccc([N+](=O)[O-])cc1)c1ccc([N+](=O)[O-])cc1,1.3593,320.251,508.3588141,0.629970389
FIKXAY,COC(=O)[C@@]12[C@H]3C[C@H]4[C@@H]1[C@]1([N+](=O)[O-])[C@H]4[C@H]3[C@H](OC)[C@]21[N+](=O)[O-],1.4619,221.877,352.2258809,0.629928157
ABAGIV,C/C(=N\Nc1ccccc1C)c1cccc([N+](=O)[O-])c1,1.2945,217.462,345.2257538,0.629912449
PUMQEV,CCOC(=O)C1(C(=O)OCC)NC(c2ccc([N+](=O)[O-])cc2)C(C(=O)OC)=C1C(=O)OC,1.382,340.687,540.8694899,0.629887628
KUHKEF,CCOC(=O)[C@H](C#N)[C@@H]1C([N+](=O)[O-])=C(NC)Oc2ccccc21,1.3571,244.391,388.0172455,0.629845716
RIPWOD,CC1=CC=C(C=O)C(c2ccccc2[N+](=O)[O-])C1,1.3013,195.379,310.2086341,0.629830954
CABMID,O=[N+]([O-])c1ccccc1N/N=C(/C=C/c1ccccc1)c1ccccc1,1.2872,278.761,442.6702352,0.629726098
UWIRID,O=CC(c1ccccc1)C(C[N+](=O)[O-])c1ccccc1,1.2847,219.044,347.8446985,0.629717805
FUMBOE,CC(C)(OC(=O)c1ccc([N+](=O)[O-])cc1)c1ccccc1,1.3124,227.165,360.7415722,0.629716721
JAQWUT,C=CCC1C(=O)CC2(OCCO2)C([N+](=O)[O-])C1C(=O)OC,1.3875,225.414,357.9721034,0.629697113
CUTWOD,CC(C)(C)C1=C[C@](C)([N+](=O)[O-])C(=O)[C@@](C)([N+](=O)[O-])[C@H]1[N+](=O)[O-],1.3868,237.589,377.319082,0.629676609
NUCNOO,O=C1C2OC3(COCC(c4ccccc4)N13)OC2c1ccc([N+](=O)[O-])cc1,1.3926,276.389,438.9402906,0.629673343
BUXMAJ,O=C(c1ccccc1[N+](=O)[O-])C1C(c2ccccc2)C2c3ccccc3CCN2C12C(=O)c1ccccc1C2=O,1.3383,412.658,655.3662463,0.629660136
SIBTUT,COc1ccc(C(=O)OC2C(=O)N(c3ccc(OC)cc3)C2C(O)C[N+](=O)[O-])cc1,1.3706,317.431,504.1676171,0.62961402
MOPQAJ,O=[N+]([O-])c1ccc(N/N=C/CC2C=CC3C4C=CC(C4)C23)c([N+](=O)[O-])c1,1.3613,271.985,431.9936355,0.629604183
QQQFAD07,O=[N+]([O-])C(CO)(CO)CO,1.4292,110.497,175.5040785,0.629597904
TUZNUZ,CCOC(=O)C1(/C(C)=N/Nc2ccc([N+](=O)[O-])cc2[N+](=O)[O-])CCC=C1C,1.362,288.731,458.6014941,0.629590186
BEWRAZ,O=[N+]([O-])c1ccc(C2OCCC3=CCCOC32)cc1,1.365,199.978,317.6431057,0.629568205
HAHBIE,COc1ccc(C2c3ccc([N+](=O)[O-])cc3NC(c3ccccc3)C2C)cc1,1.3019,300.462,477.2525912,0.62956599
LOKGUP,CC1(O)C(=O)CC(c2ccccc2)C1[N+](=O)[O-],1.341,183.242,291.1120438,0.629455235
SEFGAL,CC12OOC(C)(O1)C(OC(=O)c1ccc([N+](=O)[O-])cc1)CC(c1ccccc1)O2,1.3898,301.67,479.2668276,0.629440601
NOFBEP,CNC(NC)=C(C=C1C(=O)CC(C)(C)CC1=O)[N+](=O)[O-],1.3314,220.708,350.6512135,0.629423175
FOKWUA,O=[N+]([O-])c1ccc(C2O/C(=C\c3ccccc3)c3ccccc32)cc1,1.3064,263.304,418.3344184,0.62941032
HODKAN,CCC(CC)=NNc1ccc([N+](=O)[O-])cc1[N+](=O)[O-],1.355,205.261,326.1167226,0.629409613
YOJQOF,CN(C)/C=N/c1c(C(c2ccc([N+](=O)[O-])cc2)c2c(N)n(C)c(=O)n(C)c2=O)c(=O)n(C)c(=O)n1C,1.3742,378.903,602.0279575,0.629377748
JIPBAO,CC(NC(=O)c1ccc([N+](=O)[O-])cc1)c1cncc(N2CCN(c3ccccn3)CC2)n1,1.3519,334.885,532.1022755,0.62936209
NIZWID,O=CC1CCC(O)C([N+](=O)[O-])C1c1ccccc1,1.3368,194.718,309.4371927,0.629265016
WARVOC,COc1ccc(C2CC=CC(O)C2[N+](=O)[O-])cc1OC,1.3413,217.415,345.5537038,0.629178613
TIJJOM,O=[N+]([O-])c1cc2c(c3ccccc13)-c1c(ccc3c1-c1ccccc1CC3)CC2,1.3105,300.678,477.8949301,0.629171772
ACALEV,Cc1cccc(C)c1NC(=O)c1ccc([N+](=O)[O-])cc1,1.3098,215.453,342.4406738,0.629168836
QUGLIN,C[C@]1(c2ccccc2)C(=O)c2ccccc2N1[N+](=O)[O-],1.3407,208.916,332.0516193,0.629167237
KOYREY,COc1ccc(N2C3C=CC(CO)(C4C(=O)N(c5ccccc5)C(=O)C34)C2c2ccc([N+](=O)[O-])cc2)cc1,1.3597,392.782,624.2966108,0.62915927
AGUQUO,C=CC(c1ccccc1)C(C)(COC(=O)c1ccc([N+](=O)[O-])cc1)OC(=O)c1ccc([N+](=O)[O-])cc1,1.3415,381.727,606.7256985,0.629159109
VABXED,Cc1ccccc1C1CN(C)C2(C(=O)Nc3ccccc32)C1(CO)[N+](=O)[O-],1.3431,285.595,453.9458075,0.629138975
VOQTED,O=C1CCCC2=C1C(c1ccc([N+](=O)[O-])cc1)C1C(=O)CCCC1(O)O2,1.3855,269.28,428.0299723,0.629114822
KABTIT,O=c1oc2ccccc2c2c1C(c1ccccc1)C([N+](=O)[O-])/C(=C\c1ccccc1)O2,1.3423,319.966,508.5974692,0.629114416
AFIFUS,CN1CC2([N+](=O)[O-])C(c3cccc4ccccc34)Oc3ccccc3C2C12C(=O)Nc1ccccc12,1.3468,370.12,588.3476407,0.629083852
HOGZAF,CC1=CCC23CC=CCC(C)(C=CC12)C3OC(=O)c1cc([N+](=O)[O-])cc([N+](=O)[O-])c1,1.3517,316.97,503.877646,0.629061445
FUGREE,O=[N+]([O-])c1ccc(C2OC3CCCN3C2c2ccc([N+](=O)[O-])cc2)cc1,1.3769,269.416,428.2859993,0.629056286
KACGIH,CC(=O)Oc1ccc(O)c(/C(=C\C=C(/c2ccccc2)N2CCOCC2)[N+](=O)[O-])c1,1.3374,320.351,509.2653014,0.629045409
ACUMAP,CNc1c2cc([N+](=O)[O-])cc1CCCCCC2,1.2896,189.652,301.4947397,0.629039167
EGORAW,CC1(C)COC2(CC(Nc3cccc([N+](=O)[O-])c3)C(=O)O2)C1,1.3614,234.877,373.3990613,0.629024077
AGOBOQ,O=[N+]([O-])/C(=C\C(c1ccccc1)c1ccccc1)c1ccccc1,1.2598,261.25,415.3818998,0.628939297
XEBHET,CC(C)(C)[N-][N+](=O)c1nonc1N[N+](=O)[O-],1.4354,167.404,266.1730469,0.628929195
JAGNOX01,COc1ccc(NC(CC(O)c2ccc([N+](=O)[O-])cc2)c2ccccc2)c([N+](=O)[O-])c1,1.344,328.81,522.820926,0.628915148
OLAJAM,CC1(C)OC(=O)C2(C(=O)O1)C(c1ccccc1)CC(=O)CC2c1ccc([N+](=O)[O-])cc1,1.3625,324.296,515.7083819,0.628836008
SEKBUI,CCOC(=O)/C=C/c1cc(C=O)c(-c2ccc([N+](=O)[O-])cc2)n1-c1ccc(OC)cc1,1.3267,330.684,525.8697713,0.628832494
NPXODC,O=[N+]([O-])c1ccc(OC2CCC3CCCCC3O2)cc1,1.339,216.116,343.6926186,0.628806056
VEPFOO,CCOC(=O)C1=C(C)N(C)CC(C(=O)OC)C1c1cccc([N+](=O)[O-])c1,1.336,283.047,450.1366872,0.628802335
OFUZUM,COC(=O)C1(c2ccccc2)OC(/C=C/c2ccccc2)C([N+](=O)[O-])C1c1ccccc1OC,1.3153,364.508,579.7116189,0.628774701
PUKPOB,CN1CN(Cc2ccccc2)CC([N+](=O)[O-])=C1NCc1ccccc1,1.2985,271.889,432.47763,0.628677603
YEHDOF,C=CC(C)(C)CC12CC1CC=C2OC(=O)c1ccc([N+](=O)[O-])cc1,1.2828,266.236,423.4957942,0.628662678
WUHSEA,O=[N+]([O-])C1COc2ccc3ccccc3c2C1c1ccccc1,1.3235,240.662,382.816535,0.628661455
YAZZEH,CN1CC(c2ccccc2)C([N+](=O)[O-])C12c1ccccc1-c1nc3ccccc3nc12,1.325,321.581,511.5382747,0.628654816
FONZAM,CCOC(=O)C1=CCC2([N+](=O)[O-])c3c(OCc4ccccc4)cccc3N(C(=O)OC(C)(C)C)C12,1.3302,376.852,599.4609344,0.628651474
KUZRED,O=[N+]([O-])/N=C1\NCN(CC2CCCO2)CN1Cc1ccco1,1.3852,232.963,370.6064359,0.628599445
OXUTEI,O=[N+]([O-])c1ccc(O)c(-c2nc3c(c4c2-c2ccccc2CC4)-c2ccccc2CC3)c1,1.3298,329.792,524.6629268,0.628578814
OSIGII,O=[N+]([O-])c1ccccc1/C=C/C=C/c1ccccc1,1.2594,208.098,331.0844374,0.628534526
BAQFIK,COC(=O)C1=C(C(=O)OC)N(c2ccc(C)cc2)C2=C(C(=O)CC2)C1c1cccc([N+](=O)[O-])c1,1.3414,359.588,572.1143353,0.628524716
KEPFAN,Cc1ccc(-c2cc(CN3CCN/C3=N\[N+](=O)[O-])no2)cc1,1.3591,231.242,367.9167852,0.628517125
MOTCUW,CN1c2ccccc2C(c2ccc([N+](=O)[O-])cc2)c2ccccc21,1.3093,251.994,400.9400655,0.628507903
FIWLIJ,CC[C@@H](C)[C@@H](Nc1ccc([N+](=O)[O-])cc1[N+](=O)[O-])C(=O)OC,1.3615,238.48,379.4580591,0.628475254
KURHOX,COC1CC(=O)OC(C(COC(=O)/C=C/c2ccc([N+](=O)[O-])cc2)OC(C)=O)C1OC(C)=O,1.3794,351.901,559.9464114,0.628454782
WOKSIY,Cc1ccc(/N=N/c2ccc(N(C)C)cc2)cc1[N+](=O)[O-],1.3,228.078,362.9398746,0.628418137
JAPXIK,O=[N+]([O-])c1ccc(/C=C\C2=NN(c3ccccc3)CC2)cc1,1.3061,234.194,372.6737142,0.628415665
HINQAZ,CC1(C)c2ccccc2N2Cc3c(cccc3[N+](=O)[O-])OC21C,1.3293,243.462,387.4255409,0.628409783
MAPANA,CN(C)CCCNc1c2ccccc2nc2ccc([N+](=O)[O-])cc12,1.3118,257.863,410.3505216,0.628396911
BUDVEC,C/C=C/C=N/Nc1ccccc1[N+](=O)[O-],1.2977,164.912,262.436897,0.62838725
PIKPAD,COc1cccc(C2Oc3ccccc3C(Nc3ccccc3)=C2[N+](=O)[O-])c1,1.3269,294.218,468.2151832,0.628382014
QOKYAR,CN1CC2=C(c3ccccc3)c3ccccc3C2=C([N+](=O)[O-])C1,1.3076,242.69,386.2218017,0.628369499
LUCXOY,O=C1Nc2ccccc2C12C([N+](=O)[O-])C(c1ccccc1)C1CCCN12,1.3424,271.385,431.902764,0.628347449
OGIBUE,COC(=O)C1C(O)C(OCc2ccccc2)C2OC(C)(C)OC2C1[N+](=O)[O-],1.3863,286.876,456.5570324,0.628346471
FAKVOC,CN(C)c1ccc(Nc2ccc([N+](=O)[O-])cn2)cc1,1.3165,204.57,325.5755782,0.628333369
PADCEF,CC(=O)C1(O)CCC(C)(C)C12CC=C(COC(=O)c1cc([N+](=O)[O-])cc([N+](=O)[O-])c1)CC2,1.3623,341.717,543.8655961,0.628311484
XECYIO,CC1(C)c2ccccc2N2Cc3cc(/N=N/c4ccc([N+](=O)[O-])cc4)ccc3OC21c1ccccc1,1.3159,377.534,600.9214578,0.628258477
PEXKEI,C[C@]12N[C@H](Cc3cc([N+](=O)[O-])ccc31)c1ccccc12,1.3275,209.129,332.8774684,0.628246186
NAPXEK,C=C(c1ccccc1)n1nnc(-c2ccc([N+](=O)[O-])cc2)c1C,1.3059,244.536,389.255723,0.62821427
LAWJAX,Cc1ccc2c(c1)CN(c1ccccc1)C(c1ccc([N+](=O)[O-])cc1)O2,1.3135,274.898,437.5990647,0.628196041
UNOWEB,N#Cc1cn2c(c1-c1ccccc1[N+](=O)[O-])-c1ccccc1CC2,1.3125,250.431,398.6715045,0.628163782
PAXTAL,Cc1ccc(CNc2cccc([N+](=O)[O-])c2)cc1,1.2866,196.29,312.4828535,0.628162467
JERJOF,COC(=O)C1([N+](=O)[O-])C(O)C(C)OC(OC)C1O,1.4336,192.874,307.0531948,0.628145231
XEDTEG,CCN1C(C#N)=C(C#N)N2C3Nc4ccccc4N(C)C3C([N+](=O)[O-])C2C1OC,1.3492,305.513,486.3773182,0.6281399
SAZPER,O=[N+]([O-])c1ccc2c(c1)N[C@H](c1ccccc1)C(c1ccccc1)=N2,1.3208,259.916,413.7876577,0.6281386
DIZREL,Cc1ccc(-c2c(-c3ccc([N+](=O)[O-])cc3)n(-c3cccc4cccnc34)c(=O)c3ccccc23)cc1,1.3188,382.106,608.3808455,0.628070398
SEBHIQ,CN(C)c1ccc(/N=N/c2ccccc2[N+](=O)[O-])cc1,1.3056,215.77,343.556563,0.628047964
PUKXOL,O=C1CCCC2=C1C(c1ccc([N+](=O)[O-])cc1)C1=C(CCCC1=O)N2O,1.3661,270.346,430.4621052,0.6280367
OCALEL,C/C(=N\NC(=O)c1ccccc1[N+](=O)[O-])c1ccccn1,1.3347,221.981,353.4587663,0.628025165
TALKIA,COC(=O)c1c(-c2ccccc2)c(-c2ccccc2)n(C)c1-c1ccc([N+](=O)[O-])cc1,1.3061,329.075,524.0054476,0.627999196
FUZFIS,COc1cc(C(C)C)c(OCc2cc(-c3ccc([N+](=O)[O-])cc3)no2)cc1C,1.3164,302.726,482.0746422,0.627964994
IPIKEZ,O=[N+]([O-])c1ccc(CNCCN(CCNCc2ccc([N+](=O)[O-])cc2)CCNCc2ccc([N+](=O)[O-])cc2)cc1,1.3341,430.882,686.1588144,0.627962493
ULECOF,COC1=C(C)C(=O)N(C)[C@@H](c2ccc([N+](=O)[O-])cc2)[C@@]1(C)O,1.3448,237.37,378.0082406,0.627949273
HOHMIA,CCN(CC)c1ccc(/N=N/c2ccc([N+](=O)[O-])cc2C#N)cc1,1.2885,261.508,416.4558292,0.627936942
GECZAR,CC1(C)CC(=O)c2c(n(-c3cccc([N+](=O)[O-])c3)c(=O)c3ccccc23)C1,1.3414,281.497,448.2984395,0.627923221
EQAWEA,CCOC(=O)/C(C)=N/Nc1ccccc1[N+](=O)[O-],1.3425,195.023,310.5855197,0.627920452
CACREE,CCCn1c(C)c(C(=O)c2ccccc2)c2ccc([N+](=O)[O-])cc2c1=O,1.31,278.662,443.8323105,0.627854245
LEQMUQ,COc1ccc2c(c1)/C(=C(/c1ccccc1)c1ccccc1[N+](=O)[O-])C(=O)N2C,1.3188,305.256,486.2010364,0.627839057
DORKEA,CC12CCCC1=CCCC/C2=N\Nc1ccc([N+](=O)[O-])cc1[N+](=O)[O-],1.3424,267.285,425.7247651,0.627835216
IKAGIM,CCC(COc1ccc([N+](=O)[O-])cc1)(COc1ccc([N+](=O)[O-])cc1)COc1ccc([N+](=O)[O-])cc1,1.3652,379.647,604.714605,0.627811858
UBOLII,CCOC(=O)C1=C(Nc2ccc3c(c2)c2ccccc2n3CC)C(=O)OC1c1ccc([N+](=O)[O-])cc1,1.3475,375.339,597.8883215,0.62777443
JINYEK,CN1N=NN(C)C(C)(C)/C1=N/c1ccc([N+](=O)[O-])cc1[N+](=O)[O-],1.3806,242.455,386.2447251,0.627723783
OJUKEM,C=CC1(c2ccccc2)C(=O)CCC1(C)[N+](=O)[O-],1.2889,198.219,315.7899637,0.627692526
NADDEC,O=C1CCCCC1C(O)c1ccc([N+](=O)[O-])cc1,1.3307,195.118,310.8556694,0.627680365
FEZZUG,COc1ccc(COC(C(=O)O)(c2ccccc2)C(Nc2ccc(OC)cc2)c2ccc([N+](=O)[O-])cc2)cc1,1.3208,416.747,664.0761165,0.627559085
GUWQAR,Cc1ccc(N2Cc3ccccc3OC2c2ccccc2[N+](=O)[O-])cc1,1.3125,274.82,437.9324735,0.62753967
MEWHIH,CNC1=C([N+](=O)[O-])C(c2ccc(OC)cc2)C(C#N)=C(c2ccccc2)O1,1.3206,286.497,456.6108111,0.627442437
BAZPIC,CN(C)c1ccc([N+](=O)[O-])cc1N,1.3177,143.184,228.2082122,0.627427026
MINJEA,Cn1c(O)c(C(C2=C(O)CC(C)(C)CC2=O)c2ccc([N+](=O)[O-])cc2)c(=O)n(C)c1=O,1.3716,325.995,519.5774776,0.62742327
LIFJIV,CN1c2cccc3cccc(c23)N(C)C1(C)c1ccc([N+](=O)[O-])cc1,1.3107,264.821,422.0837073,0.627413462
ECIBIB01,CN(c1ccccc1)[N+](=O)[O-],1.3179,120.208,191.5991152,0.627393294
CAYNIC,CCOC(=O)C1(Cc2ccc([N+](=O)[O-])cc2)CCC2(C)OOC1(C)O2,1.3639,268.21,427.5162918,0.627367904
FULPEH01,COC(=O)C1=C(C)NC(C)=C(C(=O)OCC(C)C)C1c1cccc([N+](=O)[O-])c1,1.3205,306.237,488.1364655,0.6273594
LALVAZ,CCOC(=O)c1c([N+](=O)[O-])c(OC)c(OC)c(OC)c1[N+](=O)[O-],1.4328,239.993,382.5475473,0.627354695
GEYPEF,O=[N+]([O-])c1ccccc1CN(CCc1c[nH]c2ccccc12)Cc1ccccc1[N+](=O)[O-],1.32,339.484,541.1594797,0.627327087
TAFMUK,COC1(C)CC(C[N+](=O)[O-])c2c(ccc3ccccc23)O1,1.3269,225.408,359.3220496,0.627314689
GISWEK,CN1c2ccc([N+](=O)[O-])cc2C(C)(C)C12C=Nc1c(ccc3ccccc13)O2,1.3297,292.323,466.0003538,0.627302099
QENQIJ,O=C(OC12c3ccccc3-c3ccccc3C1CC2Cc1ccccc1)c1ccc([N+](=O)[O-])cc1,1.3111,366.397,584.094877,0.627290213
FOVVAN,O=[N+]([O-])[C@]12[C@H]3[C@H]4[C@@H]5C[C@H]6[C@H]([C@H]([C@@H]3[C@@H]46)N1O)[C@@H]52,1.4589,157.144,250.5125821,0.62728985
REMZUE,COCC1OC(OC)N(Nc2ccc([N+](=O)[O-])cc2)C(=O)C1OC,1.3948,254.748,406.128256,0.627259976
MIDFAJ,CC1=C(c2ccccc2)C2(c3ccccc3)c3cc(C)cc([N+](=O)[O-])c3NCC2(C)C1=O,1.2975,340.523,542.8833425,0.627248938
FOVRAK,C/C(=C/c1ccc2c(c1)CCO2)[N+](=O)[O-],1.3176,162.117,258.4590977,0.627244316
CUDDAG,CN1c2ccccc2N2C3C4N(C)c5ccccc5N3C1C2C4(C)[N+](=O)[O-],1.3575,278.657,444.2573208,0.627242337
TEMBIW,CC1(C)C/C(=N\OC(=O)c2ccccc2)c2cc([N+](=O)[O-])ccc2O1,1.3455,263.281,419.7546588,0.627225915
TAKSAA,COc1cccc(OC(=O)/C(=C/c2ccc([N+](=O)[O-])cc2)c2ccccc2)c1,1.3131,297.536,474.3803084,0.627209846
BOFHOT,O=[N+]([O-])c1ccc(/N=N/C(=N/N(c2ccccc2)c2ccccc2)c2ccccc2)cc1,1.2968,338.248,539.3029954,0.627194736
MUCJAW,CC1(C)CC(=O)C2=C(C1)Nc1ccc3ccccc3c1C2c1cccc([N+](=O)[O-])c1,1.3132,315.789,503.494935,0.627193996
KOPCIE,C=C1c2cc([N+](=O)[O-])cnc2C(=O)N1CCCC,1.3325,193.119,307.9377898,0.62713641
WAJSIM,C[C@@]12CCN3c4ccc([N+](=O)[O-])cc4[C@@H]1[C@H]32,1.3413,167.773,267.5306425,0.627116948
RIZCOS,Cc1cc([N+](=O)[O-])ccc1N1C(=O)C2C3c4ccccc4C(c4ccccc43)C2C1=O,1.3492,316.559,504.7853,0.627116122
AZONUZ,CN(c1ccccc1)c1ncnc(N(C)c2ccccc2)c1[N+](=O)[O-],1.3168,265.039,422.638621,0.627105491
FUVHIO,CC1=C(C)CC(C)(COC(=O)c2cc([N+](=O)[O-])cc([N+](=O)[O-])c2)C(C)C1,1.3322,283.088,451.4206681,0.62710465
QEPJEC,Cc1ncc([N+](=O)[O-])n1C[C@@H](C)OC(=O)c1ccccc1,1.3332,225.821,360.1033968,0.627100444
LIPKAY,COc1ccc2c(c1)C1OCCC1C(c1ccccc1[N+](=O)[O-])N2,1.3464,252.239,402.2325659,0.627097409
TAZWIB,CCCC1=C([N+](=O)[O-])CC(c2ccccc2)N1c1ccccc1,1.2691,252.817,403.2133045,0.6270056
MULTOE,CCOC(=O)CC1CC([N+](=O)[O-])C(C(=O)OCC)C12C(=O)Nc1ccccc12,1.3612,298.405,475.9557518,0.626959542
MAYCEX,O=C1N(c2ccccc2)N=C(c2ccccc2)C12C(c1ccccc1)=CC(c1ccc([N+](=O)[O-])cc1)CC2O,1.309,409.729,653.564088,0.626914801
SEFTOP,CC(C)(C)OC(=O)N1CC(C#Cc2ccccc2)=C1c1cccc([N+](=O)[O-])c1,1.286,304.458,485.7091099,0.626831974
FEPXUV,CCOC(=O)C1=C/C(=N\c2c(C)cccc2C)C(C#N)(C#N)C12C(=O)N(C)c1ccc([N+](=O)[O-])cc12,1.3371,376.129,600.0493446,0.626830115
REWDAY,CNC(=O)N1C(=O)NC(C)=C(C(=O)OC(C)C)C1c1cccc([N+](=O)[O-])c1,1.3603,287.808,459.1746196,0.626794225
TEHFER,CC1(C2OCCO2)C=C(N2CCCC2=O)c2cc([N+](=O)[O-])ccc2O1,1.3846,260.167,415.1098058,0.626742602
CEFNEI,O=C1CCCCC1C(Nc1ccccc1)c1ccccc1[N+](=O)[O-],1.2953,260.451,415.5633135,0.626742043
HIKXAA,O=[N+]([O-])c1ccc(-c2cc3cccc(N4CCCCCC4)n3c2)cc1,1.304,267.498,426.8192512,0.626724308
CUYKUC,O=C(O)CCCCC1([N+](=O)[O-])CCC(=O)O1,1.3866,173.433,276.7358727,0.626709498
QEPZAO,CCOC(=O)c1c(C(=O)c2ccc(C)cc2)c(-c2ccc(C)cc2)nn1-c1ccc([N+](=O)[O-])cc1[N+](=O)[O-],1.3501,396.317,632.3943254,0.626692847
PAFMER,COc1cc(Cc2ccc([N+](=O)[O-])cc2)c(C(=O)c2ccccc2)cc1OC,1.3032,301.158,480.5524643,0.626691199
JODSEA,O=C(Cc1ccccc1)Nc1ccc([N+](=O)[O-])cc1,1.3124,203.063,324.0280448,0.62668341
SEDMIZ,O=[N+]([O-])c1ccc(/C=N/N(c2ccccc2)c2ccccc2)cc1,1.2906,255.678,408.0300156,0.626615666
DACZIT,O=C(C[C@@H](C[N+](=O)[O-])c1ccccc1)c1ccccn1,1.2944,217.125,346.5148289,0.626596561
LESYEN,O=[N+]([O-])c1ccccc1-c1ccccc1,1.2848,161.215,257.2887324,0.626591761
GARXIG,Cc1cc(C)c(O/C(=N/c2ccc([N+](=O)[O-])cc2)c2ccccc2)c(=O)c(C)c1,1.2931,312.325,498.4526449,0.626589112
DELPEQ,CC(C)=NNc1ccccc1[N+](=O)[O-],1.2985,154.702,246.9288882,0.626504259
DORJOK,CC(CC(C)(C#N)COC(=O)c1ccc([N+](=O)[O-])cc1)c1cccc2ccccc12,1.287,325.09,518.8993813,0.626499109
SUVNUU,CC(=O)OC12NC1(C#N)C(c1ccc([N+](=O)[O-])cc1)C1=C(CCCC1=O)O2,1.3721,279.854,446.7028344,0.626488078
FADQIO,Cc1cccc(C(=O)O/C(=C\C#N)c2ccccc2)c1[N+](=O)[O-],1.3048,245.634,392.0885663,0.626475805
WIFQUY,O=C1C=C(CCCCOC/C(Cc2ccccc2)=N\Nc2ccc([N+](=O)[O-])cc2[N+](=O)[O-])CCO1,1.3382,374.815,598.3472992,0.626417134
GEPGOX,CC(C)N(C)c1ccc([N+](=O)[O-])c2ccccc12,1.2761,198.982,317.6770064,0.626365762
MRPLNB,O=[N+]([O-])c1ccc(/C(=N\O)N2CCOCC2)cc1,1.3693,190.73,304.5067262,0.626357264