name,smiles,Density,Vint,Veff,pc
VUJWEC,CO[C@H]1CC[C@@H](CO)N1C(=O)c1ccccc1[N+](=O)[O-],1.3482,214.419,345.0110468,0.621484448
AZECAM,Cc1noc(C2C(c3ccccc3)N3CCC(=O)N3C23C(=O)N(Cc2ccccc2)c2ccccc23)c1[N+](=O)[O-],1.3342,413.979,666.1138928,0.62148381
FUHTAD,COC(=O)C1(C(=O)OC)C(c2ccc([N+](=O)[O-])cc2)C(C(C)=O)([N+](=O)[O-])C(c2ccccc2)N1c1ccccc1,1.3449,419.867,675.5984588,0.621474183
NOFNIH,Cc1ccc(-c2cc(C)c(O)c(C)c2C)c([N+](=O)[O-])c1,1.268,220.66,355.0656723,0.621462499
IDOHUF,CC1CCC(C(C)C)C(/N=N/c2ccc([N+](=O)[O-])cc2[N+](=O)[O-])([N+](=O)[O-])C1,1.3509,289.645,466.0708667,0.621461285
GADYAM,CCOc1cc(/C=C/c2cc3ccccc3[nH]2)c([N+](=O)[O-])cc1OC,1.3051,267.368,430.2299646,0.621453692
VOFROY,CCOC(=O)C1CC(=O)CC(c2ccccc2[N+](=O)[O-])N1Cc1ccccc1,1.3061,301.932,485.876318,0.621417404
QEPROU,O=[N+]([O-])c1ccc(OC(c2ccccc2)(c2ccccc2)c2ccccc2)cc1,1.2667,310.486,499.656794,0.621398535
YUMNEA,CN1CC(c2ccccc2)C(CO)([N+](=O)[O-])C12C(=O)Nc1ccccc12,1.3392,272.098,437.88846,0.621386551
XUCSOD,CC(=O)OC1C(Oc2ccccc2)OC([N+](=O)[O-])C(OC(C)=O)C1OC(C)=O,1.3825,296.348,476.9806492,0.621299838
YIXHOC,O=C(OCC1CCCC2(CCCCO2)O1)c1cc([N+](=O)[O-])cc([N+](=O)[O-])c1,1.3899,282.161,454.1553608,0.621287393
BUYKEL,C/C(=N\Nc1ccc([N+](=O)[O-])cc1[N+](=O)[O-])C1CCC=CC1C(C)(C)C#N,1.3074,292.878,471.4297257,0.621254842
VALVIO,O=[N+]([O-])c1ccc(-c2cnc(/C=C\C=C\N3CCCCC3)o2)cc1,1.3032,257.384,414.3123621,0.621231765
REMKEC,C=CCC1OC(CC(=O)c2cccc([N+](=O)[O-])c2)c2ccccc21,1.294,257.588,414.6568994,0.621207558
IVEQIL,CCOC(=O)C1=N[C@@H](C(C)C)O[C@@H]1c1ccc([N+](=O)[O-])cc1,1.314,240.325,386.8687077,0.62120558
UPUXAF,CC1(C)CC(=O)C2=C(C1)OC1CC2c2ccc3cccnc3c2N1Cc1ccc([N+](=O)[O-])cc1,1.3231,354.878,571.2942266,0.621182542
SAVKEI,O=[N+]([O-])c1ccc(NCc2ccc(C(=C(c3ccccc3)c3ccccc3)c3ccccc3)cc2)c2nonc12,1.2878,419.867,675.9289847,0.621170285
FECJEE,Cc1ccc2nc(-c3ccccc3)n(-c3ccc([N+](=O)[O-])cc3)c2c1,1.2937,262.402,422.4555447,0.621135178
MEGSIB,CCn1c2ccccc2c2cc(-c3ccc4c(c3[N+](=O)[O-])c3ccccc3n4CC)ccc21,1.2857,347.516,559.4906215,0.621129268
TASBOF,COc1ccc(C(O)(c2ccc([N+](=O)[O-])cc2)c2ccc(OC)cc2OC)c(OC)c1,1.3228,331.506,533.7162526,0.621127797
MICMIU,CCCCCNc1ccc([N+](=O)[O-])cc1[N+](=O)[O-],1.3303,196.244,315.9499726,0.621123649
HETYOV,CC(c1ccccc1)N1C(=O)c2ccccc2NC1c1ccccc1[N+](=O)[O-],1.3074,294.366,473.9488071,0.621092396
TEQZEU,CC(C)(C)n1nc(-c2ccc([N+](=O)[O-])cc2)c2c(N)ncnc21,1.3294,242.15,389.8968305,0.62106173
KEXKED01,O=[N+]([O-])/C(=C(/c1ccccc1)N1CCOCC1)c1ccccc1,1.2905,247.845,399.0738252,0.621050503
EZUJOZ,CCOC(=O)C1(C(=O)OCC)C=C(C(C)=O)C(c2ccc([N+](=O)[O-])cc2)N1,1.3341,290.759,468.1782332,0.621043396
LONSUE,COc1ccccc1C1NC(c2ccccc2)C(c2ccccc2)C1[N+](=O)[O-],1.2812,301.176,484.9634316,0.621028268
PEGZUZ,COC(=O)C1N2CCc3c([nH]c4ccccc34)C2N2C(c3ccc([N+](=O)[O-])cc3)C12C(=O)c1ccccc1,1.3329,393.146,633.1119039,0.62097395
PIJRUY,O=C1CCN2C(c3ccccc3)C(c3ccccc3[N+](=O)[O-])CN12,1.3176,252.884,407.2439905,0.62096435
WUKVOO,CCOC(=O)CC(/C=C/c1ccccc1)=C\c1cccc([N+](=O)[O-])c1,1.2651,274.788,442.5266116,0.620952487
SEJPOP,Cc1cc(C)c(C2c3ccccc3C(=O)N2c2ccc([N+](=O)[O-])cc2)c(C)c1,1.2823,299.246,481.9371129,0.620923336
FADJAY,O=[N+]([O-])c1ccc(N/N=C2\CCCC2/C(=C/c2ccccc2)c2ccccc2)c([N+](=O)[O-])c1,1.3072,348.77,561.7026568,0.620915703
AKURAA,CC(C)(C)OC(=O)NC1CC(NC(=O)c2ccc([N+](=O)[O-])cc2)C1,1.3206,261.659,421.4349306,0.620876394
KIBGIL,CC(C)(C)C(=O)Oc1ccc([N+](=O)[O-])cc1,1.3032,176.49,284.2649253,0.620864497
KIBGOU,CC(C)(C)NC(=O)Nc1ccc([N+](=O)[O-])cn1,1.3242,185.373,298.5952303,0.620817017
COWNUX,CN1[C@H](c2ccc([N+](=O)[O-])cc2)OC[C@H]2CCCC[C@H]21,1.3026,218.542,352.0423461,0.620783273
FATSIF,CC(=O)C1(C)O/C(=N\c2ccc(N(C)C)cc2)C(c2ccc([N+](=O)[O-])cc2)=C1C#N,1.2927,322.267,519.1683488,0.620736994
IJUTIS,O=C1C2CCCC1C(c1cccc([N+](=O)[O-])c1)NC2c1cccc([N+](=O)[O-])c1,1.3459,291.887,470.2493357,0.620706884
BETWAY,O=[N+]([O-])c1ccc([C@H]2N[C@H]3CCCC[C@H]3CO2)cc1,1.3183,204.954,330.1949264,0.620706085
HIFYOK,COCC12CCCN1c1ccc([N+](=O)[O-])cc1C(C)C2(C#N)C#N,1.3112,256.375,413.0449824,0.620695108
GEVLEZ,COc1cc(C(=O)NCc2ccccc2)c([N+](=O)[O-])cc1OC,1.3227,246.32,396.8590712,0.62067373
ERISED,CCOC(=O)C1(OC(=O)c2ccc([N+](=O)[O-])cc2)CCC(OC)CC1,1.3358,270.928,436.5095602,0.62066911
SUTKEY,CCOC(=O)C1C2(C(=O)OCC)CCCCC2=NN(C(=O)Nc2ccccc2)C1(O)c1ccc([N+](=O)[O-])cc1,1.3496,411.018,662.229911,0.620657559
FABJAW,Cc1c(C)c(-c2ccccc2)c([N+](=O)[O-])c(N)c1C#N,1.2818,214.746,346.0349117,0.620590561
ULEDEV,CCCCCCCCn1c(=O)[nH]c2cc([N+](=O)[O-])ccc21,1.2826,233.931,376.9666762,0.620561484
EZICUM,CCCc1ccc(/N=C/c2cc([N+](=O)[O-])ccc2O)cc1,1.2826,228.269,367.8490433,0.620550751
DUBGEP,O=[N+]([O-])c1ccc(C2CC(c3ccccc3)=CCO2)cc1,1.2906,224.436,361.6947808,0.620512133
WOVCIT,C=C(C)C1CC1C(OC(=O)c1ccc([N+](=O)[O-])cc1)c1ccccc1,1.2727,272.94,439.8840389,0.620481709
JITWOY,Cc1cc(C)c(/C(O)=C/C(=O)c2cccc([N+](=O)[O-])c2)c(C)c1,1.2805,250.338,403.46648,0.620467901
UWUPUZ,Cc1ccc2c(c1)C(c1ccc([N+](=O)[O-])cc1)CC1c3ccccc3C(=O)N21,1.3055,292.111,470.8087105,0.62044519
KUWGOZ,CC(C)(C)n1nccc1-c1ccc([N+](=O)[O-])cc1,1.2782,197.571,318.4480819,0.620418245
TUCJUZ,O=[N+]([O-])c1cn(C23CC4CC(CC(C4)C2)C3)nn1,1.3671,186.991,301.3972914,0.620413671
CIKFAD,COC(=O)C(c1ccc([N+](=O)[O-])cc1)C(C)c1ccccc1,1.2785,241.037,388.5112458,0.6204119
MOZYUV,COC(=O)C1=C(N)C(C#N)(C(=O)OC)C(c2ccccc2)C([N+](=O)[O-])C1c1ccccc1,1.3165,340.529,548.8784843,0.620408724
TABMOB,O=C1OC(c2ccccc2)(C(C[N+](=O)[O-])c2ccccc2)C(=O)N1c1ccccc1,1.3202,313.776,505.8044856,0.62035037
PNBPIP,O=C(c1ccc([N+](=O)[O-])cc1)N1CCCCC1,1.3096,184.144,296.8442231,0.620338837
CELNEO,COC(=O)C1=C(C(=O)OC)N(c2ccccc2)C(/C=C/c2ccccc2)OC1c1ccc([N+](=O)[O-])cc1,1.3159,391.51,631.1748293,0.620287727
CAPXUM,CC1(C)OC2C(OC(=O)c3cc([N+](=O)[O-])cc([N+](=O)[O-])c3)C3OC3(COCc3ccccc3)C2O1,1.3778,363.421,585.9074139,0.620270356
CEFGID,CC(=O)NC(Cc1ccccc1)C(=O)Nc1ccc([N+](=O)[O-])cc1,1.3075,257.686,415.4635849,0.620237271
JISJON,C=CC(=C)CC(OC(=O)c1cc([N+](=O)[O-])cc([N+](=O)[O-])c1)C12CCCC1(CO)C1C=CC2C1,1.3198,354.428,571.4512398,0.620224396
GESBIQ,CC1CC2OC(COCc3ccccc3)(C1)OC2/C=N/Nc1ccc([N+](=O)[O-])cc1[N+](=O)[O-],1.355,346.731,559.0455847,0.620219548
VEQJAD,C/C(C=O)=C1/C(c2ccc([N+](=O)[O-])cc2)=C(c2ccc(C)cc2)c2ccc(C)cc21,1.2578,323.549,521.6963345,0.620186454
DAVHAJ,COc1cc2c(OC)c(c1)CCc1cc(cc([N+](=O)[O-])c1)CC2,1.3055,247.022,398.3041106,0.620184411
FAHKII,O=[N+]([O-])CC(O)C1CCOC(c2ccccc2)O1,1.3436,193.971,312.8085699,0.620094904
NEDZOO,CCCOC(=O)c1c(C(=O)OCC)c(C)nc2ccc([N+](=O)[O-])cc12,1.329,268.171,432.4763259,0.620082497
VAXZUQ,C=CCCC1C(OC(=O)c2ccc([N+](=O)[O-])cc2)C=CC2OC(=O)CC21,1.3237,277.805,448.0135429,0.620081702
BUSLUY,N#C[C@]1([N+](=O)[O-])[C@H]2C=C[C@H](C2)[C@@H]1c1ccccc1,1.2791,193.256,311.698265,0.620009868
PMOXMB,CC(OC(=O)c1cc([N+](=O)[O-])cc([N+](=O)[O-])c1)C1OC(C)(C)C1(C)C,1.3358,271.387,437.746804,0.619963407
YEFNON,C/C(=N\NC(=O)Cn1cc([N+](=O)[O-])nc1C)c1ccc(C)cc1,1.307,248.217,400.3902765,0.619937632
COGKUH,CCOC(=O)C1=CCC2([N+](=O)[O-])c3ccccc3N(C(=O)c3ccccc3)C12,1.326,293.557,473.5359592,0.619925466
HIPXEL,O=[N+]([O-])c1cccc(C2c3c(ccc4ccccc34)OC3CCCCN32)c1,1.307,283.667,457.5828309,0.61992492
PEQWIR,CC1(C)C/C(=N\Nc2ccc([N+](=O)[O-])cc2[N+](=O)[O-])C2(CC3CCC2C3)C1=O,1.3451,295.538,476.7345687,0.619921481
VEXWAX,O=C(OC1CCCCCCC1O)c1ccc([N+](=O)[O-])cc1,1.316,229.293,369.8826531,0.619907417
SUVPIK,N#CC12NC1(OC(=O)Cc1ccccc1)OC1=C(C(=O)CCC1)C2c1ccc([N+](=O)[O-])cc1,1.3387,342.265,552.1614522,0.619863988
KERTAD,CC(C)n1c(Oc2cccc([N+](=O)[O-])c2)nc2c(nnn2-c2ccccc2)c1=O,1.3534,298.234,481.1289766,0.619862894
CUWRAP,COC(=O)C1=C2NCCC(c3cc(OC)c(OC)cc3[N+](=O)[O-])C2CC1,1.3391,278.368,449.0946263,0.619842643
NOHDAS,CCOC(=O)C1=CCC2([N+](=O)[O-])c3ccccc3N(C(C)=O)C12,1.3379,243.195,392.3503202,0.619841472
DIHXIE,O=C1c2ccccc2C(=O)C12CC(c1ccccc1)=C(c1ccccc1)CC2c1ccc([N+](=O)[O-])cc1,1.2876,387.839,625.7076679,0.619840574
TAFMOE,COc1ccc2c(c1)C(C[N+](=O)[O-])CC(C)(OC)O2,1.3318,206.406,333.0560017,0.619733615
DAWPIA,CC(C)(C)C1=CC([N+](=O)[O-])(C(C)(C)C)C(=O)C(C)(O)C1[N+](=O)[O-],1.3163,256.558,414.000002,0.619705311
QEPJIG,CC(=O)OC(C)Cn1c([N+](=O)[O-])cnc1C,1.3325,175.34,283.0068744,0.619560922
DEMNUE,CC1=C[C@@](C)([N+](=O)[O-])C(=O)C(C)(C)[C@@H]1[N+](=O)[O-],1.3392,185.982,300.1904905,0.619546607
MUVNIA,CC12CCC3c4cc([N+](=O)[O-])c(O)cc4CCC3C1CCC2O,1.3211,246.985,398.6680746,0.619525404
SUKVID,CC1=CC2CC2CC(C)(OC(=O)c2ccc([N+](=O)[O-])cc2)C1,1.2844,241.2,389.3326193,0.619521684
CUTXUL,CC[C@H](C=O)[C@@H](C[N+](=O)[O-])N1C(=O)c2ccccc2C1=O,1.3313,224.168,361.844742,0.619514322
WOCVUF,CN(C)/C=N/c1nn(C)c(/N=C/N(C)C)c1[N+](=O)[O-],1.2995,211.468,341.3774109,0.619455164
YEKTUE,COc1ccc(CN(C(=O)c2ccc([N+](=O)[O-])cc2)c2ccc(C(=O)O)cc2)cc1,1.3228,315.813,509.8253986,0.61945325
WADGEP,CCOC(=O)c1nnn(Cc2ccccc2)c1/N=C(\NC(C)C)Oc1cccc([N+](=O)[O-])c1,1.3181,352.88,569.6771612,0.619438559
HAVMUM,COc1ccc(-c2cc(-c3ccccc3)c(C#N)c(-c3ccccc3)c2[N+](=O)[O-])cc1,1.2684,329.291,531.7111097,0.619304344
IROZAR,O=C1Nc2ccccc2C12NC(c1ccccc1)C([N+](=O)[O-])C2c1ccccc1,1.3095,302.47,488.4061629,0.61930013
OYAROX,CC1C=CC2C(=C1COC(=O)c1ccc([N+](=O)[O-])cc1)C(C)(COC(=O)c1ccc([N+](=O)[O-])cc1)CC2(C)C,1.3149,417.786,674.6466489,0.619266398
RIXWUR,CCOC(=O)C1=NOC2(C1)C(=O)NC(C)=C(C(=O)OCC)C2c1ccccc1[N+](=O)[O-],1.3673,324.24,523.6153258,0.619233212
PABHUV,CC(OC(=O)C12CCC(C)(C(=O)O1)C2(C)C)c1ccccc1[N+](=O)[O-],1.3253,269.321,434.9622842,0.619182421
BIFSEO,COC(=O)c1ccccc1NC1C(OC)OC2COC(c3ccccc3)OC2C1[N+](=O)[O-],1.3598,335.823,542.403966,0.619138172
SENMII,COC(=O)C1=C(N)Oc2c(ccc3ccccc23)C1c1cccc([N+](=O)[O-])c1,1.3388,288.827,466.5084355,0.619124925
GAGJAA,C=C(C)C(C)CC(c1ccco1)N(C(=O)c1cc([N+](=O)[O-])cc([N+](=O)[O-])c1)c1ccc(OC)cc1,1.3116,375.589,606.6700646,0.61909928
MUNTEW,CCC1/C(=N/Nc2ccc([N+](=O)[O-])cc2[N+](=O)[O-])CC2CCN3C(=O)CCCC1C23,1.3497,316.245,510.8225203,0.619089777
DAFHEY,CC(C)(C)OC(=O)c1nc(-c2cccc([N+](=O)[O-])c2)[nH]c(=O)c1OCc1ccccc1,1.3263,327.982,529.7981789,0.619069701
UNOBII,O=C(OCC1CC(c2ccccc2)CO1)c1ccc([N+](=O)[O-])cc1,1.3246,253.871,410.0860509,0.619067631
LIPWAJ,O=C1C(C2=CCCCCC2)=C(c2ccccc2)C(=O)N1c1ccc([N+](=O)[O-])cc1,1.2908,309.093,499.3408082,0.619002082
XEGDOD,O=[N+]([O-])c1ccc(/C=C2\COC(OC3CCCCO3)C2)cc1,1.3246,236.783,382.5251181,0.618999874
JUYZUB,CC=C=C1COC2(c3ccc([N+](=O)[O-])cc3)C=CC(=O)CC12,1.3001,234.899,379.4819161,0.618999193
RUTPED,O=[N+]([O-])c1ccc(Cn2nnc(-c3ccccc3)c2N(Cc2ccccc2)Cc2ccccc2)cc1,1.2709,384.322,620.9131247,0.618962597
NUPYUV,CCC1C(c2ccccc2)=NC(C(=O)OC)(c2ccc([N+](=O)[O-])cc2)C12C=CC=CC2=O,1.3006,339.932,549.2171758,0.618939128
BALGEA,CCOC(=O)C12CC=C(C)CCC1(O)C(/C(C)=N/Nc1ccc([N+](=O)[O-])cc1[N+](=O)[O-])CC2,1.3345,354.388,572.6497897,0.618856422
BEXYIO,O=CN(Cc1c2ccccc2cc2ccccc12)c1ccccc1Nc1ccc([N+](=O)[O-])cc1,1.2921,355.643,574.6854415,0.618848111
DUGXAE,CC(=O)OC1COC(Nc2cc(C)c(C)cc2[N+](=O)[O-])C(OC(C)=O)C1OC(C)=O,1.353,322.137,520.5768428,0.618807779
XAZMUI,C/C(=C\c1ccc(C)cc1)[N+](=O)[O-],1.238,146.971,237.5261324,0.618757181
CENMUD,CCC(=O)c1c(OC)c(C)c(OC)c2c(OC)c([N+](=O)[O-])cc(OC)c12,1.3254,281.463,454.9695717,0.618641372
EHECAV,CO[C@H]1CC[C@](C#N)(OC(=O)c2ccc([N+](=O)[O-])cc2)CC1,1.3199,236.671,382.6034497,0.618580413
VACWIH,COc1ccc2cc([N+](=O)[O-])ccc2c1-c1c(OC(=O)C(C)(C)C)ccc2ccccc12,1.2931,340.898,551.1245445,0.618549842
IQORUC,COC1CC(C[N+](=O)[O-])(OC(C)=O)C2OC(c3ccccc3)OCC2O1,1.3669,275.871,446.0096756,0.618531424
RIPNAF,CC1CC2(CCC/C2=N\Nc2ccc([N+](=O)[O-])cc2[N+](=O)[O-])OC1C,1.3487,265.136,428.654912,0.61853018
JIMYOT,CC(C)N(c1ccc([N+](=O)[O-])cc1[N+](=O)[O-])C1CCCCC1,1.3017,242.359,391.8403735,0.618514621
YIFMIK,COc1c([N+](=O)[O-])cc(C(C)(C)C)cc1[N+](=O)[O-],1.3312,196.041,316.9638709,0.618496359
NPXMBZ10,COC(=O)c1ccc(Oc2c(C)cc(C)cc2C)c([N+](=O)[O-])c1,1.299,249.116,402.8273927,0.618418719
FIWZIW,COC1OC2C(OCc3ccccc3)C1C([N+](=O)[O-])C2OCc1ccccc1,1.3233,298.885,483.3252503,0.6183931
XIKBIE,O=C1CCCC(c2c(-c3ccccc3)[nH]c3ccccc23)/C1=C\c1ccccc1[N+](=O)[O-],1.2845,337.495,545.7718556,0.618381099
RAJHIT,C[C@@H](c1ccccc1)N(C)c1ccc([N+](=O)[O-])cn1,1.2742,207.189,335.0867511,0.618314509
DIJNIU,CC1C(C)(OC(=O)c2ccc([N+](=O)[O-])cc2)CCC1(C#N)C(=O)C(C)(C)C,1.279,298.751,483.2080121,0.618265825
WOJHAG,CNC1=C([N+](=O)[O-])C(c2ccc(OC)cc2)C2=C(CC(C)(C)CC2=O)O1,1.3157,279.463,452.0397195,0.618226647
XATHOR,CC1=CC(C)(C)Cc2nc3cc([N+](=O)[O-])ccc3n21,1.3008,202.911,328.2345773,0.618188984
QAYSIT,O=C1CCCC2=C1C(c1cccc([N+](=O)[O-])c1)C1C(=O)CCCC1(O)O2,1.3535,270.853,438.1496318,0.618174661
BEXLUL02,CN1c2ccccc2C(C)(C)C12C=Cc1cc([N+](=O)[O-])ccc1O2,1.297,254.943,412.4379117,0.618136676
UHAVEF,O=C(c1ccc([N+](=O)[O-])cc1)N1CCCCc2[nH]c3ccccc3c21,1.3162,261.35,422.8171113,0.618115949
RIGJOI,CCOC(=O)C12CCC(C)(O)C(C1)C(=O)C=C2c1ccc([N+](=O)[O-])cc1,1.3203,279.193,451.7024276,0.618090546
SIPQEO,CC(c1ccccc1)C(C)(C#N)COC(=O)c1ccc([N+](=O)[O-])cc1,1.2725,272.729,441.2519659,0.618079966
WICJAV,CC1CCC=CC23OC(=O)C4CC(CC142)C3(C)OC(=O)c1ccc([N+](=O)[O-])cc1,1.34,304.175,492.1727639,0.618024853
DEZVOT,CC(=O)CCc1c(C)c(OC(C)=O)c(C)c(C)c1OC(=O)c1ccc([N+](=O)[O-])cc1,1.2985,326.518,528.3578428,0.617986473
GEPPUN,CCN(C(=O)COc1ccc([N+](=O)[O-])cc1)c1ccccc1,1.2991,237.049,383.6227682,0.617922135
CONFET,CCOC(=O)C1=C(C)NC2=C(C(=O)CC(C)(C)C2)C1c1ccccc1[N+](=O)[O-],1.2993,303.394,490.9953417,0.617916249
AZEBUF,CCN1C(=O)C2(c3ccccc31)C(c1onc(C)c1[N+](=O)[O-])C(c1ccccc1)N1CCC(=O)N12,1.3406,362.163,586.1151479,0.61790418
IFUNII,CC/C(=C1/C(=O)N(C(=O)OC)c2ccccc21)C(C)C(C[N+](=O)[O-])c1ccc(OC)cc1,1.2918,348.041,563.2761969,0.61788693
LIYVEW,O=C1N(CCCN2CCOCC2)C(c2cccc([N+](=O)[O-])c2)C12c1ccccc1Oc1ccccc12,1.3161,378.19,612.1988716,0.617756774
JIKGAL,CC1=Cc2cc([N+](=O)[O-])ccc2OC12N(C)c1ccccc1C2(C)C,1.2905,267.196,432.5504533,0.617722159
TAFMIY,COc1cccc2c1OC(C)(OC)CC2C[N+](=O)[O-],1.3266,206.536,334.3615129,0.617702672
NBCBCO,CC(OC(=O)OCc1ccc([N+](=O)[O-])cc1)C1C(=O)N2C1CCOC2(C)C,1.3405,289.354,468.4399622,0.617697087
JUKDIC,CC1CC2C(=O)C(O)(C1)C1([N+](=O)[O-])CCCC21,1.3429,182.643,295.6851796,0.617694131
TAMTUW,Cc1c([N+](=O)[O-])cc2c(c1[N+](=O)[O-])C(C)(C)CCC2(C)C,1.295,231.399,374.6189307,0.617691689
CACBUF,CC(=O)Nc1c(C)cc(C)cc1[N+](=O)[O-],1.2936,164.997,267.1193615,0.617690156
ISITAF,COC(=O)C(Nc1ccccc1)(c1ccccc1)C(Nc1ccccc1)c1ccc([N+](=O)[O-])cc1,1.2801,374.344,606.0515516,0.617676828
JAVCEO01,COc1ccc(/C=C/c2ccc([N+](=O)[O-])cc2)cc1C,1.2612,218.857,354.3261053,0.617671113
HIVWIU,C=CCC1(C)OC(COC(=O)c2ccc([N+](=O)[O-])cc2)CC1=O,1.3138,249.111,403.3389695,0.617621948
WATSUG,CCC(C(=O)OC)C(c1ccccc1)N(C(=O)c1cc([N+](=O)[O-])cc([N+](=O)[O-])c1)C(C)c1ccccc1,1.3019,397.963,644.3736426,0.617596645
CBYMBZ,COC(=O)c1ccc(Cc2c(C)cc(C)cc2C)c([N+](=O)[O-])c1,1.2704,252.764,409.308892,0.617538502
CIRLAS,COc1ccc(C(C[N+](=O)[O-])c2ccc(C)cc2)cc1,1.2565,221.268,358.3153781,0.617523036
UCIRAA,CN1C(C)(C)COC12N(c1ccc([N+](=O)[O-])cc1)C(=O)N(c1ccc([N+](=O)[O-])cc1)C(=O)C2(C)C,1.3557,365.461,591.8426393,0.617496908
GEJTUL,Cc1ccc(/C=C/c2cc([N+](=O)[O-])c(/C=C/c3ccc(C)cc3)c([N+](=O)[O-])c2N2CCCCC2)cc1,1.2694,390.327,632.1318481,0.617477194
USESUJ,CN(C)C(c1cccc([N+](=O)[O-])c1)c1c(O)ccc2ccccc12,1.2841,257.22,416.5812409,0.617454592
JEPBOV,C=C1CCC(C(C)C)C2C(=C\C)/C(=N/Nc3ccc([N+](=O)[O-])cc3[N+](=O)[O-])CC12,1.2838,318.003,515.0672146,0.617400974
SUMZEF,CC(C)(C)OC(=O)C1CC/C(=C\C(=O)OCc2ccc([N+](=O)[O-])cc2)N1C(=O)OCc1ccccc1,1.3098,388.391,629.0762636,0.617398911
POFHID,CNC1=C([N+](=O)[O-])C(c2ccc(C)cc2)C2=C(CC(C)(C)CC2=O)O1,1.2958,270.711,438.483951,0.617379494
LIFBUZ,COC(=O)C1=C(C(=O)OC)N(c2ccccc2)C(O)(C(=O)OC)C(C(=O)OC)C1c1cccc([N+](=O)[O-])c1,1.3572,398.95,646.20246,0.61737617
TASLII,C=C1CCC23CC1C(C)(C)C2C(OC(=O)c1ccc([N+](=O)[O-])cc1)CC3C,1.2804,295.611,478.8219074,0.617371502
BIYMII,CC(C)c1cccc(C(C)C)c1NC(=O)C1CCCN1c1c[n+]([O-])ccc1[N+](=O)[O-],1.286,328.617,532.2843535,0.617371144
LEVKEE,CC(C)([C@H](Cc1ccccc1)[N+](=O)[O-])[N+](=O)[O-],1.3015,187.544,303.7888204,0.617349907
VUXBIZ,CC(=O)OC1C=CCCC1(OC(=O)c1ccc([N+](=O)[O-])cc1)C(C)=O,1.3357,266.4,431.5303537,0.617337802
QOGGUQ,CN1c2ccccc2C2(C)Cc3cc([N+](=O)[O-])ccc3OC12C,1.3053,243.569,394.5489707,0.617335282
TEGMAW,Cc1cc([N+](=O)[O-])ccc1N(Cc1ccccc1)Cc1ccccc1,1.2456,273.347,442.8166384,0.61729162
HITNED,CC=C=CC(C)(C)/C=N/Nc1ccc([N+](=O)[O-])cc1[N+](=O)[O-],1.3072,238.463,386.3348742,0.617244303
WIMWEU,CC(O)C1C(=O)N2C(C(=O)OCc3ccc([N+](=O)[O-])cc3)CC=CCC12,1.3276,278.037,450.4635625,0.617224173
GAZXAG,CC(=O)OCC1(OCc2ccccc2)OCC(OC(C)=O)C([N+](=O)[O-])C1OC(C)=O,1.3538,321.843,521.4762333,0.617176737
XODXOF,O=C1N(N2CCOCC2)C(c2ccccc2[N+](=O)[O-])C12c1ccccc1Oc1ccccc12,1.3376,339.469,550.1583204,0.617038746
QEXYOI,Cc1ccc2c(c1)N1C(OC(c3ccc([N+](=O)[O-])cc3)C1c1ccc([N+](=O)[O-])cc1)C(c1ccccc1)=N2,1.3235,391.868,635.0794623,0.617037746
AZUHIN,C#CCOc1ccccc1C(C[N+](=O)[O-])c1c(C)[nH]c2ccccc12,1.2666,270.302,438.0697706,0.617029565
IYOHIP,CC(=O)C1C(c2ccccc2)C([N+](=O)[O-])C(c2ccccc2)C(C=O)C1(C)O,1.2851,303.89,492.5300353,0.616997905
CURFOL,O=C1CCCCC12COC(c1ccc([N+](=O)[O-])cc1)C2,1.3149,214.369,347.4463669,0.616984434
PUGFAB,CC12NC(c3ccc([N+](=O)[O-])cc3)C(c3ccccc3)C1C(=O)Oc1ccccc12,1.3072,313.623,508.3203146,0.61697908
QUMMOB,CC1(C)OC2OC3C4COC(Cc5ccc([N+](=O)[O-])cc5)(CC3(OCc3ccccc3)C2O1)O4,1.3554,354.637,574.8190874,0.616954113
FUHTOR,COC(=O)C1C(c2ccccc2)C([N+](=O)[O-])C(c2ccccc2)N1c1ccccc1,1.2813,321.548,521.2077606,0.61692865
VIPPEQ,CC12CCC(OC(=O)c3ccc([N+](=O)[O-])cc3)CC1CCC2=O,1.3167,246.725,399.9544099,0.616882809
YUMBOY,CCOC(=O)C1=CCC(c2ccccc2)C([N+](=O)[O-])C1c1ccccc1,1.2754,282.02,457.2015091,0.616839609
YAYCIK,COC(=O)C12CCCC3=C1C(CCC2)C([N+](=O)[O-])CC3COC(=O)c1ccc([N+](=O)[O-])cc1,1.3483,348.051,564.2922951,0.616792047
DIXBAP,O=[N+]([O-])c1ccccc1-c1nc(-c2ccccc2)c(-c2ccccc2)n1C(CO)Cc1ccccc1,1.2667,384.23,622.957161,0.616783985
TOMMUE,COC1=CC(=O)N[C@@H]1[C@H](C[N+](=O)[O-])c1ccccc1,1.3133,204.403,331.406038,0.616775123
HIMYOU,CCOC(=O)[C@@H](C#N)[C@H](c1ccccc1)[C@@H](C)[N+](=O)[O-],1.2701,222.649,361.003022,0.61675107
NERGEZ,CCOC(=O)C(=O)/C(=C\NC(C)(C)C)C(=O)c1ccc([N+](=O)[O-])cc1,1.2997,274.306,444.8012815,0.616693367
DOZHIL,CC(C)=CCC[C@@]1(C)Oc2c(c(C)nn2-c2ccccc2)[C@]2(C)c3cc([N+](=O)[O-])ccc3OC[C@@H]21,1.2859,376.848,611.1269591,0.616644372
LIFKAO,CN1c2cccc3cccc(c23)N(C)C1(C)c1ccccc1[N+](=O)[O-],1.2893,264.577,429.0895178,0.61660094
BAQNEM,CC(=O)CC(c1ccccc1)C(C(OC(C)=O)c1ccccc1[N+](=O)[O-])[N+](=O)[O-],1.3149,311.576,505.3243447,0.616586165
GUVYAY,O=[N+]([O-])c1ccc2c(c1)C[C@@H]1CCCCN21,1.3111,170.326,276.2459303,0.616573789
BULTOU,CC/C(=C\[N+](=O)[O-])N1CCOCC1,1.3021,146.334,237.3384491,0.616562553
DEVRUR,CCC(C1OC(=O)c2ccccc21)[N+](=O)[O-],1.3274,170.516,276.5608425,0.616558724
PIHBIT,CCCC1OCC(c2ccccc2)N1C(=O)C1OC1c1ccc([N+](=O)[O-])cc1,1.2993,301.105,488.4191941,0.616488876
HOWZIE,CCC(C1=C(C=O)C(c2ccccc2)C=C(c2ccc([N+](=O)[O-])cc2)O1)c1ccccc1,1.2633,344.534,558.873738,0.616479138
EJEYID,C/C(=N\c1c([N+](=O)[O-])ncn1C)N1CCCCC1,1.318,195.065,316.4189196,0.616477043
TAJJUJ,CCC(CC)(c1ccccc1)C(CC)(CC)c1ccc([N+](=O)[O-])cc1,1.2094,287.123,465.775135,0.616441236
LUBGIB,O=[N+]([O-])c1ccccc1CN1CCN(Cc2ccccc2[N+](=O)[O-])CC1,1.3141,277.433,450.057168,0.616439465
NUKPIT,CCOC(=O)C1CC2([N+](=O)[O-])CC(C(=O)OCC)CC([N+](=O)[O-])(C1)C2c1ccccc1,1.3421,331.145,537.2035628,0.616423685
VEPDIG,CCOC(=O)C(C(=O)OCC)/C(=C\C=C\c1ccc([N+](=O)[O-])cc1)C(=O)c1ccccc1,1.2846,348.336,565.0996878,0.616415134
KAJSOD,CC1(C)OC2(C=Cc3cc([N+](=O)[O-])c4ccccc4c3O2)c2ccccc21,1.3144,279.667,453.7033078,0.616409436
FUQFEC,CN1c2ccccc2N(C)C12N(c1ccccc1[N+](=O)[O-])N=NC2(C)C,1.3056,276.099,447.9203611,0.616401986
DIWWEL02,CN(C)c1cccc2cccc([N+](=O)[O-])c12,1.2812,172.639,280.0802769,0.616391136
SIKTIP,COC1N(c2ccc([N+](=O)[O-])cc2)C(=O)C(C)C1(O)c1ccccc1,1.3143,266.436,432.2659073,0.616370608
QEPJAY,Cc1ncc([N+](=O)[O-])n1C[C@H](C)OC(=O)/C=C/c1ccccc1,1.294,249.259,404.3983286,0.616370006
BUKXUA,CC(=O)OC/C(=N/Nc1ccc([N+](=O)[O-])cc1[N+](=O)[O-])C(OC(C)=O)C(OC(C)=O)C(COC(C)=O)OC(C)=O,1.3696,426.074,691.2836173,0.616351942
DUPHIF,CN(C)C(=C[N+](=O)[O-])N(C)C,1.2612,129.111,209.4852123,0.616325127
KIVYOD,CC1(C)c2ccccc2N(C(=O)c2cccc([N+](=O)[O-])c2)C1c1c(O)ccc2ccccc12,1.2893,347.786,564.3411958,0.616269028