name,smiles,Density,Vint,Veff,pc
RAXWOD,CC(=O)N1CCCCC2=CC(OC(=O)c3ccc([N+](=O)[O-])cc3)C(OC(=O)c3ccc([N+](=O)[O-])cc3)C21,1.4093,385.749,599.9315821,0.64298832
HAWMAU,COC(=O)/C(=C/c1ccc(OC)cc1)[N+](=O)[O-],1.3748,184.116,286.345663,0.642985118
BIPQID,O=C1CCCCC1(c1ccccc1)[N+](=O)[O-],1.3438,174.077,270.7397645,0.642967982
NIMBEQ,CCOC(=O)C1=NN(c2ccc([N+](=O)[O-])cc2)C2(C)CC(c3ccccc3)=Nc3ccccc3N12,1.3689,365.946,569.1518826,0.642967214
TIVPUK,CN(C)c1ccc(NC(=O)Nc2ccc([N+](=O)[O-])cc2)cc1,1.3754,232.981,362.3549457,0.642963489
EGUQIG,O=C1[C@H]([C@@H](O)c2ccc([N+](=O)[O-])cc2)C[C@@H]2CCN12,1.3898,201.35,313.1641602,0.642953523
PUFMOT,CCOc1cc(/C=N/Nc2cccc([N+](=O)[O-])c2)ccc1O,1.3684,234.926,365.4026956,0.642923555
JOPNUX,O=[N+]([O-])c1ccc2c(c1)NCCOCCNCCO2,1.3863,205.711,319.9759339,0.642895225
JOLDOD,COc1ccc2c(c1)C(=O)C(Nc1ccc(C=O)cc1)(OC)C(OC)(c1ccc([N+](=O)[O-])cc1)O2,1.3916,366.807,570.5628949,0.64288618
GIGSUK,O=[N+]([O-])c1ccccc1/C=C\c1ccccc1,1.3035,184.336,286.7404311,0.642867137
QOVXUV,O=C1C=CC([N+](=O)[O-])=C/C1=C/NCCCO,1.3804,173.287,269.5644459,0.642840711
FURJEH,O=[N+]([O-])c1ccccc1NN=C1CCCCC(=NNc2ccccc2[N+](=O)[O-])CCCC1,1.3604,343.841,534.8996615,0.642814017
REZGEL,COc1ccc(C(=O)N(C)c2ccc([N+](=O)[O-])cc2)cc1,1.355,225.381,350.6198891,0.642807231
NADDAY,O=C1CCCC1C(O)c1ccc([N+](=O)[O-])cc1,1.3699,183.172,284.9706189,0.642775037
VUYKUV,CN(C)/C=N/c1ccc([N+](=O)[O-])cc1,1.3315,154.773,240.8089832,0.642721039
NOLHIG,COC(=O)c1c2ccccc2c(C)n1-c1ccc([N+](=O)[O-])cc1,1.37,241.576,375.8717882,0.642708518
CAYMAR,O=[N+]([O-])c1cccc2ccc(NCc3ccccc3)nc12,1.3461,221.285,344.3093007,0.642692485
YAJGUL,O=[N+]([O-])c1cc(N2OC3(C4CC5CC(C4)CC3C5)C3(O2)C2CC4CC(C2)CC3C4)cc([N+](=O)[O-])c1,1.429,359.387,559.2134828,0.64266512
POQQUJ,CC(=O)CCC1(Cc2ccc([N+](=O)[O-])cc2)C2(C)OOC1(C)OO2,1.3916,258.531,402.2816052,0.642661749
INOLUU,O=[N+]([O-])c1nnn(Cc2ccccc2)c1-c1ccccc1,1.3502,221.376,344.4878242,0.642623583
WUHSIE,O=[N+]([O-])C1Cc2c(ccc3ccccc23)OC1c1ccccc1,1.3602,239.369,372.4876372,0.64262267
WOPTEC,CCCCn1c2ccccc2c2cc(/C=C(\C#N)c3ccc([N+](=O)[O-])cc3)ccc21,1.3033,323.554,503.4975092,0.642612911
BAZPOI,CN(C)c1ccc([N+](=O)[O-])c(N)c1,1.3571,142.385,221.5827583,0.642581585
XAKLIF,CN(C)CCN(Cc1c2ccccc2cc2ccccc12)c1ccc([N+](=O)[O-])cc1[N+](=O)[O-],1.351,350.819,545.9695793,0.642561442
LUFMEF,CC1OCC2CC(=O)C(c3ccc([N+](=O)[O-])cc3)=C21,1.375,201.054,312.8986551,0.642553097
BAQJEI,CC(=O)CC(/C(=C\c1ccccc1[N+](=O)[O-])[N+](=O)[O-])c1ccccc1,1.3533,268.141,417.3353235,0.642507319
ETICEP,O=C1CCCC=C1C(O)c1ccc([N+](=O)[O-])cc1,1.3658,193.019,300.4162036,0.64250529
GIJPEW,CCc1nnn(-c2cc([N+](=O)[O-])ccc2Oc2nc3ccccc3n2Cc2ccccc2)n1,1.38,341.073,530.8564414,0.642495736
SITROD,CC1CC(O)(Cc2ccccc2[N+](=O)[O-])C(=O)O1,1.3945,192.1,298.9906102,0.642495093
XUBKAJ,O=[N+]([O-])c1ccc2c(c1)CCCN2,1.3695,138.731,215.9255657,0.642494554
CUDYEH,CCOC(=O)CCn1cc([N+](=O)[O-])c(=O)[nH]c1=O,1.4593,187.945,292.525034,0.64249202
EVETUV01,CCn1c2ccccc2c2cc(/N=C/c3cccc([N+](=O)[O-])c3)ccc21,1.3304,275.163,428.2960964,0.642459743
KABGIF,COc1cc(/C=N/Nc2ccc([N+](=O)[O-])cc2)ccc1OC(C)=O,1.3753,255.287,397.3717763,0.642438682
XOTJOH,CC(=O)OCCN(CCOC(C)=O)c1ccc(/N=N/c2ccc([N+](=O)[O-])cc2)cc1,1.3603,324.787,505.5826094,0.642401447
YAWHUB,COc1ccc(NCc2ccc([N+](=O)[O-])cc2)cc1,1.3413,205.272,319.5419328,0.642394562
ITAFIT,CC1(C)CC(=O)C2=C(C1)Oc1ccc3ccccc3c1C2c1ccccc1[N+](=O)[O-],1.3497,315.464,491.0895789,0.642375675
NBZMAA,CN(C)c1ccc(/N=C/c2ccc([N+](=O)[O-])cc2)cc1,1.3167,218.022,339.4051327,0.642365065
SIKTEL,COC1N(c2ccc([N+](=O)[O-])cc2)C(=O)C(C)(C)C1(O)c1ccccc1,1.3652,278.267,433.1976783,0.642355705
LABMEJ,O=[N+]([O-])c1ccc(/C=C/c2nc3c(c4c2-c2ccccc2CC4)-c2ccccc2CC3)cc1,1.3307,344.819,536.8131008,0.642344606
ONABEL,COc1ccc(C(/C=C/c2ccccc2[N+](=O)[O-])=C(C#N)C#N)cc1,1.3112,269.343,419.3239055,0.642326842
MENPPO,CN1C(=O)C[C@H](c2ccccc2[N+](=O)[O-])C1=O,1.4037,177.858,276.9015978,0.64231482
IZIPOY,CC(C)(C)c1ccc(/C(O)=C/c2nc3ccccc3nc2-c2ccc([N+](=O)[O-])cc2)cc1,1.3232,342.723,533.5881556,0.64229874
VUKHIS,CC(=O)N(C(C)=O)c1ccccc1-c1ccccc1[N+](=O)[O-],1.3496,235.585,366.7880481,0.642291921
OYUBAO,CC1(C)OC(=O)C(=C(O)Cc2ccccc2[N+](=O)[O-])C(=O)O1,1.4342,228.36,355.5425438,0.642286005
BIHVUK,COc1ccc(/C=N/Nc2ccc([N+](=O)[O-])cc2)cc1OC,1.3629,235.632,366.8772828,0.642263806
KEDCUT,C=C1CCCC2CCC/C(=N\Nc3ccc([N+](=O)[O-])cc3[N+](=O)[O-])C12C#N,1.3783,285.647,444.7508053,0.64226303
QOMQUG,CC(=O)/C(=C/c1ccccc1)COc1ccc([N+](=O)[O-])cc1,1.3217,239.74,373.2801992,0.642252122
QATYAO,CC(=O)c1nnn(-c2cccc([N+](=O)[O-])c2)c1-c1cn(-c2ccccc2)nc1-c1ccccc1,1.3622,352.434,548.7514243,0.64224708
JEGTAT,O=C1CN(Cc2ccccc2)C(=O)C(Cc2c(C(=O)c3ccccc3[N+](=O)[O-])[nH]c3ccccc23)N1,1.3711,375.046,583.9641662,0.642241462
BELHAB01,COC(=O)C1=C(C)NC(C)=C(C(=O)OC)C1c1cccc([N+](=O)[O-])c1,1.3787,267.732,416.8862241,0.642218391
DUSWIA,Cc1ccc(O)c(/C=N/c2cccc([N+](=O)[O-])c2C)c1,1.3357,215.643,335.8005499,0.642175839
WEGPUV,O=C1CCCC12C(=O)Oc1ccccc1C2C[N+](=O)[O-],1.4062,208.602,324.8448343,0.642158895
OFOMOL,O=C(OCCn1c2ccccc2c2ccccc21)c1ccc([N+](=O)[O-])cc1,1.3627,281.794,438.8349146,0.642141249
ZIVCAI,CN(C)C(=O)Oc1ccc([N+](=O)[O-])cc1,1.3862,161.58,251.646496,0.642091198
WAQYEV,CCOC(=O)/C(C#N)=C/c1ccccc1[N+](=O)[O-],1.3702,191.469,298.2148392,0.642050545
FOYPAK,Cc1c([N+](=O)[O-])oc2c3c(ccc12)CCCC3,1.3652,180.471,281.0923642,0.642034516
PAQJEZ,Cc1cccc(/C=C/C(=O)c2ccc([N+](=O)[O-])cc2)c1,1.311,217.206,338.3134214,0.642025962
LALYEC,CCC1([N+](=O)[O-])C(=O)c2ccccc2C1=O,1.3844,168.683,262.7561932,0.641975354
CUPQEL,NC(=O)[C@@H](/N=C/c1cccc([N+](=O)[O-])c1)c1ccccc1,1.3447,224.435,349.6011787,0.64197438
VUMTUU,O=C1c2ccccc2C(c2ccc([N+](=O)[O-])cc2)C2CCC1C2,1.3297,246.213,383.548825,0.641933918
IJUKUT,COc1ccc(N2C(=O)C3c4cc([N+](=O)[O-])ccc4OC(c4ccccc4)C32)cc1,1.3799,310.64,483.9213581,0.641922484
GAQCUY,O=C(c1cc([N+](=O)[O-])cc([N+](=O)[O-])c1N1CCOCC1)N1CCOCC1,1.4485,269.428,419.7271672,0.641912225
QUBNAD,Cn1c(-c2ccc([N+](=O)[O-])cc2)nc(-c2ccccc2)c1-c1ccccc1,1.3187,287.052,447.2073456,0.641876755
OWAKAB,O=[N+]([O-])c1cccc(/N=C/c2cc([N+](=O)[O-])ccc2N2CCCCC2)c1,1.3723,275.064,428.530887,0.64187672
DOKVUV,CCOC(=O)c1ccc(Nc2ccccc2)c([N+](=O)[O-])c1,1.3572,224.676,350.0515397,0.641836914
FOLCAK,CC12CC1CC(c1ccccc1)C/C2=N\Nc1ccc([N+](=O)[O-])cc1[N+](=O)[O-],1.3694,295.876,460.9862163,0.64183264
UPOBOT,CCOC(=O)C1=C(N)N(c2ccc(C)cc2)C2=C(C(=O)N(C)C2=O)C1c1ccc([N+](=O)[O-])cc1,1.3848,355.676,554.1975905,0.64178554
BIRDEL,O=[N+]([O-])c1ccc(OC23CCCC(CCC2)O3)c([N+](=O)[O-])c1,1.4355,228.739,356.4139662,0.641779003
QIMGOI,CCOC(=O)C1=C(C)OC(N)=C(C#N)[C@@H]1c1cccc([N+](=O)[O-])c1,1.3749,255.09,397.4873836,0.641756218
CIDQIP,CC(=O)Nc1cc([N+](=O)[O-])ccc1NC(C)C,1.3373,188.953,294.4343778,0.64174911
TUNPIC,CN1CCN(c2ccc([N+](=O)[O-])c(N)c2)CC1,1.3647,184.383,287.3254467,0.64172179
EXEHIB,CC1(C)NC(=C2C=C([N+](=O)[O-])C=C([N+](=O)[O-])C2=O)NC1(C)C,1.4121,232.516,362.3333353,0.641718488
VOQQAU,CC(COCOCC(C)([N+](=O)[O-])[N+](=O)[O-])([N+](=O)[O-])[N+](=O)[O-],1.5178,219.089,341.4146145,0.641709495
WIHBEV,O=C(NNC(=O)c1ccccc1[N+](=O)[O-])c1ccccc1,1.384,219.49,342.0487511,0.641692154
PECZED,O=C(Nc1ccc([N+](=O)[O-])cc1)C(Nc1ccc([N+](=O)[O-])cc1)c1ccccc1,1.3804,302.681,471.7047978,0.641674627
QADWOI,O=c1oc(-c2ccc([N+](=O)[O-])cc2)cc(-c2ccccc2)c1-c1ccccc1,1.3433,292.777,456.2849991,0.641653792
ZIGJUW,CCO/C(Cc1ccc(OC)cc1)=C(\N=N\c1ccc([N+](=O)[O-])cc1[N+](=O)[O-])C(=O)c1ccccc1,1.3692,381.439,594.4647815,0.641651132
LANHIR,Cn1c(/C=C/c2ccc([N+](=O)[O-])cc2)cc2ccccc21,1.3156,225.23,351.0352989,0.641616386
RUXLEC,CCc1nc2ccccc2c(=O)n1N1C(C)C1C(C)OC(=O)c1ccc([N+](=O)[O-])cc1,1.3618,330.275,514.7872436,0.641575727
YAZZAD,O=[N+]([O-])C1C2CCCN2C2(c3ccccc3-c3nc4ccccc4nc32)C1c1ccccc1,1.3698,337.681,526.3467679,0.641556139
FEFPEM01,O=[N+]([O-])c1ccc(Oc2ccccc2)cc1,1.3566,168.881,263.2505666,0.641521886
ZOXYIU,C[C@@H]([C@H](C[N+](=O)[O-])c1ccccc1)[N+](=O)[O-],1.3598,175.55,273.6481551,0.641517207
TUKXOP,CN1c2ccccc2C2(C)C3=C(C=C([N+](=O)[O-])C12)C(=O)C=CC3=O,1.3761,249.342,388.6865414,0.641498929
MENBEN,O=[N+]([O-])c1ccccc1/C=N/c1ccccc1,1.3199,182.456,284.4297768,0.641479954
MAVHAT,O=C1Nc2ccccc2C12C(c1ccccc1)C([N+](=O)[O-])C1CCCN12,1.3707,271.322,422.9855333,0.641445106
XARREN,O=C(C/C=C/C#Cc1ccccc1)OCc1ccc([N+](=O)[O-])cc1,1.3133,260.431,406.0144972,0.641432761
RUVSAC,COc1ccc([N+](=O)[O-])cc1OC,1.3855,140.73,219.3995481,0.641432497
DAWNAQ,CC(C)(C)C1=C[C@](C)([N+](=O)[O-])[C@H]([N+](=O)[O-])[C@@](C)([N+](=O)[O-])C1=O,1.4156,237.099,369.642627,0.641427646
ANUCUJ,CCN(CC)c1ccc(/C=C(\C#N)c2ccc([N+](=O)[O-])cc2)cc1,1.2865,265.893,414.5339411,0.641426367
NPHOPN,CC(C)(c1ccc(Oc2ccc([N+](=O)[O-])cc2)cc1)c1ccc(Oc2ccc([N+](=O)[O-])cc2)cc1,1.353,370.118,577.0343046,0.641414205
HUXKUH,CC12CCC(OC(=O)c3ccc([N+](=O)[O-])cc3)C1(O)C1(C)OC(=O)CC1O2,1.4345,280.004,436.5497644,0.641402247
GASYEG,CN1C2CCCC1C(C(O)c1ccc([N+](=O)[O-])cc1)C(=O)C2,1.3669,236.993,369.4920735,0.641402122
QECZAZ,CN(C(=O)c1ccc([N+](=O)[O-])cc1)C(C1CC1)(C1CC1)C1CC1,1.3008,257.24,401.060231,0.64139992
MISWOD,CC1(C)C(c2ccccc2)=NN(c2ccc([N+](=O)[O-])cc2)C1(O)C=O,1.361,265.391,413.7735762,0.641391851
KOTZEY,O=[N+]([O-])c1cc2c(O)c(c1)Cc1ccccc1OCCOCCOCCOCCOc1ccccc1C2,1.3621,398.15,620.7956598,0.641354355
CUXCAC,COC(=O)c1ccc(-c2ccccc2[N+](=O)[O-])cc1,1.3552,202.023,315.000341,0.641342163
ZZZJIQ02,Cc1ccc(N)cc1[N+](=O)[O-],1.3612,118.969,185.5043151,0.641327399
DUZFOU,O=C(OCc1ccccc1)N(Cc1ccccc1)n1c(-c2ccc([N+](=O)[O-])cc2)nn(-c2ccccc2)c1=O,1.3681,405.7,632.5961313,0.641325452
NOGGUL,COc1cc(/C=C/c2cc(OC)c(OC)c(OC)c2)ccc1[N+](=O)[O-],1.3561,271.026,422.6150923,0.64130696
AZOXOD,CCOC(=O)c1ccc(NCCCn2ccnc2)c([N+](=O)[O-])c1,1.3613,248.861,388.0785544,0.6412645
LALYIJ,COC(=O)C1(c2ccc([N+](=O)[O-])cc2)CC(=O)OC12C(=O)N(Cc1ccccc1)c1ccccc12,1.3844,363.159,566.3205582,0.641260492
MURLUJ,O=[N+]([O-])c1ccc(N2CCCCC2)nc1,1.3587,162.308,253.1180907,0.641234293
TEJREG,C=CCc1cc(OC)c(OC(C)=O)cc1[N+](=O)[O-],1.3677,195.473,304.8493134,0.641211875
NIZWUQ01,O=[N+]([O-])c1cccc(C2OC3CCCN3C2c2cccc([N+](=O)[O-])c2)c1,1.3991,270.248,421.4902382,0.641172619
FEQMAR,COC(=O)C1=C2C=C(c3ccc([N+](=O)[O-])cc3)OC2(C)C(c2ccccc2)C=C1,1.3507,306.724,478.4061386,0.641137258
FOHDEM,CCCOC(=O)c1cc([N+](=O)[O-])cc([N+](=O)[O-])c1,1.4265,189.61,295.7461502,0.641124153
NACDIG,O=C(O[C@@H]1CCC1=C(c1ccccc1)c1ccccc1)c1ccc([N+](=O)[O-])cc1,1.3282,308.699,481.5157478,0.641098451
LOJWIR,O=C(c1ccccc1)C1CC(c2ccccc2)OC1c1ccc([N+](=O)[O-])cc1,1.3329,298.011,464.8675941,0.641066411
DOKYIL,O=[N+]([O-])c1ccc(NN=C(c2ccccc2)c2ccccc2)cc1,1.3264,254.512,397.0171427,0.64106048
SEMTAF,O=C(O)Cc1ccc([N+](=O)[O-])cc1,1.3991,137.737,214.8744802,0.64101144
EBATOQ,O=C1C2C/C(=N\Nc3ccc([N+](=O)[O-])cc3[N+](=O)[O-])C3CCCCC3C2C(=O)N1c1ccccc1,1.403,362.017,564.7754259,0.640992833
ZOYHOM,COC(=O)C1(C(=O)OC)CCCC1C/C(=N\Nc1ccc([N+](=O)[O-])cc1[N+](=O)[O-])c1ccccc1,1.3919,370.249,577.6241988,0.640985957
CUNTOU,CC(=O)/C(C)=N/Nc1ccccc1[N+](=O)[O-],1.3626,172.693,269.4301456,0.640956488
TOJWIA,CC1(C)C(=O)c2ccc([N+](=O)[O-])cc2C1=O,1.3801,168.936,263.574867,0.640941232
SUYXOA,COc1cccc(/C=C/[N+](=O)[O-])c1OC,1.3473,165.142,257.6854913,0.640866504
POMVAP,COC(=O)/C(=C/c1ccccc1)C/N=C/c1cccc([N+](=O)[O-])c1,1.3221,260.89,407.0938191,0.640859644
KAWPUT,O=[N+]([O-])c1ccc(/C=N/CCN2CCN(Cc3ccccn3)C2c2ccc([N+](=O)[O-])cc2)cc1,1.3554,361.314,563.8075188,0.640846367
IQONAE,CC(=O)CC1C([N+](=O)[O-])C(c2ccccc2[N+](=O)[O-])OC12C=CC(O)O2,1.4371,269.602,420.7146052,0.640819208
GOHDEO,COC(=O)C(C(=O)OC)C(Cc1ccc(C)cc1)C[N+](=O)[O-],1.3436,244.821,382.0532352,0.640803368
NILZAM,CCOC(=O)c1cc(CO[N+](=O)[O-])on1,1.4553,157.966,246.514873,0.640797036
GUVTAS,O=[N+]([O-])C1=CN=C2OC(COc3ccccc3)CN2C1c1ccccc1,1.3777,271.177,423.2220637,0.640744005
KERTIL,COc1ccccc1C(=O)N/N=C/c1ccccc1OCCOc1ccccc1[N+](=O)[O-],1.3653,339.108,529.2598876,0.640721143
HIXLUX,CN(C)/C(=N\c1ccc([N+](=O)[O-])cc1)N(C)c1ccccc1,1.3163,240.981,376.1271941,0.640690181
CUTYAS,O=CC(Cc1ccccc1)C(C[N+](=O)[O-])N1C(=O)c2ccccc2C1=O,1.3687,273.696,427.1988701,0.640675852
LALWEE,COC(=O)c1c([N+](=O)[O-])c(OC)c(OC)c(OC)c1[N+](=O)[O-],1.4617,230.035,359.0611871,0.640656825
TATZEW,CCOC(=O)c1cnc(-c2ccccc2)cc1-c1cccc([N+](=O)[O-])c1,1.3399,276.387,431.4300606,0.640629908
CEGWAO,O=[N+]([O-])c1cccc(/N=C/C=C(c2ccccc2)c2ccccc2)c1,1.2929,269.984,421.4386479,0.640624683
ADEQIK,O=C1c2ccccc2C(CCCCC2([N+](=O)[O-])c3ccccc3C(=O)c3ccccc32)([N+](=O)[O-])c2ccccc21,1.3628,415.402,648.4521592,0.64060547
VIRHEJ,Cn1c(-c2ccccc2)c(/C=C/[N+](=O)[O-])c2ccccc21,1.3105,225.733,352.4014035,0.640556473
AGOKUE,O=[N+]([O-])c1ccc(-c2cn(CC3COCc4ccccc4O3)nn2)cc1,1.3916,269.142,420.1823424,0.640536198
KUHCEW,Cc1ccc(/N=C/c2ccccc2[N+](=O)[O-])cc1,1.3129,194.514,303.6737382,0.640536127
HIHWAW,COC(=O)c1c(C)nc(C)c(C(=O)OC)c1-c1cccc([N+](=O)[O-])c1,1.3737,266.429,415.966986,0.640505158
VUQDOB,CCOc1c([N+](=O)[O-])ncn1CC(O)COc1ccc(C(C)=O)cc1,1.3822,268.658,419.4479352,0.640503809
LIVRAJ,CC(=O)OCC(OC(C)=O)C1OC2C(NC(=O)N2c2ccccc2[N+](=O)[O-])C1OC(C)=O,1.4386,333.522,520.7384579,0.64047891
SIQROC,CCOC(=O)/C=C1\Oc2ccccc2C=C1c1ccc([N+](=O)[O-])cc1,1.3624,263.153,410.8778586,0.640465273
CAFSAG,O=[N+]([O-])c1ccccc1/C=C/C(=N/Nc1ccccc1)c1ccccc1,1.3093,278.699,435.1982943,0.640395433
MAMSUO,CC1C(OC(=O)c2ccc([N+](=O)[O-])cc2)CCC2(C)C1C=CC1CC(C#N)CC12C=O,1.3421,334.526,522.3746635,0.640394765
MNETAM01,CN(C)/C=C/[N+](=O)[O-],1.3163,93.757,146.4156148,0.640348368
SOYRUU,COC(=O)c1ccc(Nc2ccccc2)c([N+](=O)[O-])c1,1.3731,210.701,329.0478198,0.6403355
YAKMUU,O=[N+]([O-])c1cccc(CN(Cc2cccc([N+](=O)[O-])c2)Cc2cccc([N+](=O)[O-])c2)c1,1.379,325.491,508.3225863,0.640323701
ROMNIR,CCC(CCC#N)c1ccc(/N=N/c2ccc([N+](=O)[O-])cc2)cc1,1.3117,261.134,407.8300111,0.640301088
DIWNED,Cc1nn(-c2ccccc2)c2nc(N)c(C#N)c(-c3ccc([N+](=O)[O-])cc3)c12,1.3575,289.892,452.7570225,0.64028162
PEMLUP,COc1ccc2[nH]cc(C(c3cccc([N+](=O)[O-])c3)c3c[nH]c4ccc(OC)cc34)c2c1,1.354,335.42,523.8778539,0.640263751
NERRAE,COc1cc(/C=N/Nc2ccc([N+](=O)[O-])cc2)ccc1OC(=O)c1ccccc1,1.36,305.764,477.5651414,0.640256111
AHIDAY,O=[N+]([O-])c1ccccc1N(/N=C/c1ccccc1O)c1ccccc1,1.3403,264.237,412.7170734,0.640237628
TIKVIV,O=C1c2cccc3cc([N+](=O)[O-])cc(c23)C(=O)N1CCN1CCOCC1,1.4094,267.877,418.4099562,0.640226161
AJAXAK,COC(=O)C1C2=C(C(=O)N(C)C2=O)c2c(n(C(=O)OC(C)(C)C)c3ccccc23)-c2cccc([N+](=O)[O-])c21,1.4002,392.655,613.324399,0.640207695
GAVGIU,O=[N+]([O-])c1ccccc1/C=C/C=N/c1ccccc1O,1.3303,214.241,334.6475277,0.640198963
EVAJOD,O=C1CCC(C[N+](=O)[O-])(c2ccccc2)O1,1.3838,169.834,265.2889595,0.640184953
QEHZUZ,O=C1CCCCC1C(C[N+](=O)[O-])c1ccc2c(c1)OCO2,1.3806,224.156,350.1509366,0.640169643
EXAHUH,CC1=CC(=O)C2(OC(=O)c3cc([N+](=O)[O-])cc([N+](=O)[O-])c3)CCCCC12,1.4124,271.027,423.3751089,0.640158087
TAKQOM,O=[N+]([O-])c1ccc(O)c(C(N2CCOCC2)N2CCOCC2)c1,1.3984,245.651,383.7383935,0.640152261
XETYUS,CCc1nc(N)n(-c2ccccc2[N+](=O)[O-])n1,1.3805,179.485,280.3849117,0.640137869
HUQVIB,CC12Oc3ccccc3C1(OC(=O)c1cc([N+](=O)[O-])cc([N+](=O)[O-])c1)C/C2=C\c1ccccc1,1.3838,351.899,549.7469232,0.640110904
BAPWUM,CC1(COC(=O)c2ccc([N+](=O)[O-])cc2)Cc2ccccc2C1OC(=O)c1ccc([N+](=O)[O-])cc1,1.3879,364.622,569.6722646,0.640055735
IFIFOS,COc1ccccc1/N=C/c1ccc([N+](=O)[O-])cc1,1.335,203.885,318.5426262,0.640055626
NOTRAP,CC[C@]1(c2ccc([N+](=O)[O-])cc2)CCC(=O)NC1=O,1.3709,203.203,317.4816177,0.640046506
KANDOS,CC1C/C(=N/Nc2ccc([N+](=O)[O-])cc2[N+](=O)[O-])CCCC1OC(=O)c1ccccc1,1.3812,327.924,512.3597043,0.640026913
CAWDAF,O=[N+]([O-])c1ccc(/N=N/C(=N\N(c2ccccc2)c2ccccc2)c2ccccc2)cc1,1.3208,338.889,529.5034257,0.640012857
RAKXAE,CCOC(=O)c1nn2c(c1-c1ccc([N+](=O)[O-])cc1C)COc1ccccc1-2,1.3865,290.579,454.0651947,0.639949953
GOTHUV,CC1(C)CC(=O)C(C(=O)COc2ccc([N+](=O)[O-])cc2)=C(O)C1,1.3741,246.782,385.639137,0.639929863
TEWJIO,CC(C)Nc1c([N+](=O)[O-])c(N)c([N+](=O)[O-])c(NC(C)C)c1[N+](=O)[O-],1.4279,254.614,397.8843448,0.639919623
ZIMZAY,O=[N+]([O-])c1ccc(C2=Nc3ccccc3/C(=C(\c3ccccc3)c3cccnc3)O2)cc1,1.34,332.375,519.4046881,0.639915287
HIDQIW,CCOC(=O)c1coc(-c2ccccc2)c1-c1ccc([N+](=O)[O-])cc1,1.3537,264.601,413.5185009,0.639877054
KANMOB,O=[N+]([O-])/C(=C/c1c2ccccc2cc2ccccc12)c1ccccc1,1.308,264.107,412.7508631,0.639870255
SEZVEZ,C[C@H](C(=O)Nc1ccccc1)C(=O)OCc1ccc([N+](=O)[O-])cc1,1.3588,256.562,400.980787,0.639836143
XURHEY,CC12CCC(=O)CC1CCCCC2OC(=O)c1cc([N+](=O)[O-])cc([N+](=O)[O-])c1,1.3931,297.548,465.057045,0.639809682
TUFFEF,O=[N+]([O-])c1ccc2c(c1)CCC2,1.3443,128.87,201.430457,0.639774153
EYOGAC,O=C1C=CC([N+](=O)[O-])=C/C1=C/NCCN1CCOCC1,1.3709,216.31,338.1062347,0.639769332
SESSIT,CC1=NN(c2ccc([N+](=O)[O-])cc2)[C@H](c2ccco2)C1,1.3608,211.638,330.8212117,0.639735278
ROTCEK,O=[N+]([O-])c1ccc2nc3c(-c4ccccc4)c(-c4ccccc4)cc(-c4ccccc4)n3c2c1,1.3275,353.024,551.841744,0.639719637
AWIZIR,O=[N+]([O-])c1ccc(C(=C(c2ccccc2)c2ccccc2)c2ccc([N+](=O)[O-])cc2)cc1,1.3256,338.286,528.8047123,0.639718202
ATEJUH,CN1CC2(C=CC(=O)C=C2)O/C1=N\c1ccc([N+](=O)[O-])cc1,1.3887,228.79,357.6509399,0.63970194
TIBKIY,COC(=O)Cc1oc2ccc([N+](=O)[O-])cc2c1N1CCOCC1,1.4061,241.827,378.0381543,0.6396894
LEFZED,CC(=O)Nc1ccc(Oc2ccc([N+](=O)[O-])cc2)cc1,1.363,212.044,331.4861051,0.639676888
UXUHUS,N#CC1=C(N)OC2=C(C(=O)CCC2)[C@H]1c1ccc([N+](=O)[O-])cc1,1.3888,237.933,371.9736896,0.639650079
REVFEE,COc1ccc2c(c1)C1c3c(c4ccccc4oc3=O)OC(c3ccc([N+](=O)[O-])cc3)(N2C)C1(C)C,1.385,371.321,580.5067166,0.639649791
SUZCIB,O=C(c1ccccc1[N+](=O)[O-])N1N=C(c2ccccc2)CC1c1ccccc1,1.3365,294.958,461.1249397,0.639648769
NOHCAQ,CN1C=C(c2ccccc2)[C@@H](c2ccc([N+](=O)[O-])cc2)NC1=O,1.356,242.127,378.547414,0.639621329
NERQOT,O=C(/C(=C/C1([N+](=O)[O-])CC1)c1ccccc1)c1ccco1,1.3337,225.439,352.4706087,0.639596592
IQOVUI,CC1=CC(=O)CC(c2ccc([N+](=O)[O-])cc2)C1,1.326,185.093,289.4021837,0.639570157
DATLEP,O=C(OC1C=CC23C=CC=CC12CCCC3)c1cc([N+](=O)[O-])cc([N+](=O)[O-])c1,1.3931,291.314,455.4896541,0.639562276
POBYIO,CCOC(=O)C1CC2CC(O)C3CC1C2/C3=N/Nc1ccc([N+](=O)[O-])cc1[N+](=O)[O-],1.425,311.639,487.2827921,0.639544439
SOSREA,CN1CC2C3OC(c4ccccc43)C2C12C(=O)Nc1ccc([N+](=O)[O-])cc12,1.406,274.283,428.8764133,0.639538551
RESRAJ,Cc1ccc(-c2nc(-c3cc([N+](=O)[O-])ccc3O)[nH]c2-c2ccc(C)cc2)cc1,1.3322,307.03,480.0839742,0.639533949
KEBTAO,COc1ccc(N2CCC(CO)C2c2cccc([N+](=O)[O-])c2)cc1,1.3437,259.334,405.5318264,0.639491115
QIKKAY,CC(NC(=O)OC1(C)CCCC1C#CCCOC(=O)c1cc([N+](=O)[O-])cc([N+](=O)[O-])c1)c1ccccc1,1.3571,398.426,623.0520967,0.639474615
UFALOC,CC(=O)OCCN(CCOC(C)=O)c1ccc(/N=N/c2ccc(-c3nc4ccc([N+](=O)[O-])cc4o3)cc2)cc1,1.3673,412.528,645.1180181,0.63946129
QAWGUQ,COc1ccc(C2(c3ccc([N+](=O)[O-])cc3)OCCCO2)cc1,1.366,244.954,383.0693872,0.639450732
WOBJAY,CN(C)c1ccc(/C=C/C=N/c2cccc([N+](=O)[O-])c2)cc1,1.2978,241.459,377.6362511,0.639395713
JIXVAO,Cc1ncc2c(c1OC(=O)c1ccc([N+](=O)[O-])cc1)COC(C)(C)OC2,1.3846,274.607,429.5018325,0.639361649
KOTFUU,O=C(OC1C2C=CC1CC2)c1ccc([N+](=O)[O-])cc1,1.3732,200.316,313.3088049,0.639356433
NOVHIR,COc1ccc(N2C(=O)C(Oc3ccccc3)C2c2ccc([N+](=O)[O-])cc2)cc1,1.3548,305.725,478.1782417,0.639353641
BUWSAP,CC1(C)CC(C)(c2ccc([N+](=O)[O-])cc2)c2ccc([N+](=O)[O-])cc21,1.3465,257.147,402.2026934,0.639346788
PEDFIP,Cc1cc(C(=O)Oc2ccc([N+](=O)[O-])cc2)ccc1O,1.3818,209.789,328.1586463,0.639291399
WICHOH,O=C1c2c(nc3ccccn23)NC(c2ccc([N+](=O)[O-])cc2)NC1Cc1ccccc1,1.3725,319.553,499.8724078,0.639269131
HANCUW,COC(=O)C1=CN(c2ccc(C)cc2)C(N)=C(C#N)C1c1cccc([N+](=O)[O-])c1,1.3453,307.842,481.5688219,0.639248195
YELGAY,O=[N+]([O-])c1ccc(N(c2ccc(-n3c4ccccc4c4ccccc43)cc2)c2ccc([N+](=O)[O-])cc2)cc1,1.3563,391.42,612.3619586,0.639197119
QILSUC,O=[N+]([O-])c1ccc(C2=NOC(CN3c4ccccc4C=Cc4ccccc43)C2)cc1,1.3424,314.02,491.2805948,0.639186655
URAXAO,O=C1CCCCN1c1ccc([N+](=O)[O-])cc1,1.3659,171.004,267.5692262,0.639101897
BOCROA,CC1(C)CC(=O)C(=NNc2ccc([N+](=O)[O-])cc2)C(=O)C1,1.3638,224.962,352.0236462,0.639053661
COLBIO,CC12CCC=C3C(OC(=O)c4cc([N+](=O)[O-])cc([N+](=O)[O-])c4)CC4(CCCC314)C1(CC1)C21CCC1,1.3695,370.556,579.8584652,0.639045599
ZIFLOS01,O=[N+]([O-])c1ccc(N(c2ccccc2)c2ccccc2)cc1,1.3166,233.828,365.9040251,0.639041891
CIRLEV,CC(c1ccccc1)N(Cc1c2ccccc2cc2ccccc12)C(=O)c1ccccc1[N+](=O)[O-],1.3064,373.804,584.9454508,0.639040785
ZOLPUO,O=[N+]([O-])c1ccc(C2CC=CCO2)cc1,1.349,161.313,252.4430742,0.63900743