name,smiles,Density,Vint,Veff,pc
TOGKUY,CCOC(=O)C1=C(c2ccc([N+](=O)[O-])cc2)c2ccc(OC)cc2C1,1.3665,266.75,412.0945357,0.647302929
MOHZEQ,CC1=NN(c2cccc([N+](=O)[O-])c2)C(=O)/C1=N\Nc1ccc(C)cc1,1.3769,263.161,406.5780396,0.647258274
FAQMER,COc1ccc(C(=O)CC(O)c2cccc([N+](=O)[O-])c2)c(O)c1,1.3961,244.102,377.164637,0.647202776
OKOSOX,COC(=O)C1(c2ccc([N+](=O)[O-])cc2[N+](=O)[O-])CC2OCC(c3ccccc3)N2C1=O,1.4448,317.702,490.8948352,0.647189535
ZOKREY,COc1ccc(NN=C2C(=O)CC(C)(C)CC2=O)c([N+](=O)[O-])c1,1.396,245.668,379.6027167,0.647171343
EWEVIM02,Nc1cc([N+](=O)[O-])ccc1C(=O)O,1.5897,222.376,570.6830039,0.647080048
TOHXAP01,Nc1ccccc1C#Cc1ccccc1[N+](=O)[O-],1.3308,192.217,297.0739874,0.6470341
PAZCUP,COC(=O)C1=C(C)NC(C)=C(C(=O)OCC(C)=O)C1c1ccccc1[N+](=O)[O-],1.3922,299.532,462.9534413,0.647002427
XOJMIT01,O=[N+]([O-])c1ccc(N/N=C/c2ccc[nH]2)cc1,1.3747,179.818,277.9308006,0.646988386
ZOLJIW,CCOC(=O)c1nn2c(N)c(C#N)c(-c3ccc([N+](=O)[O-])cc3)cc2c1C(=O)OCC,1.4079,322.885,499.0621187,0.646983588
TEDYAC,Cc1cc(/C(C#N)=C/c2ccccc2)c([N+](=O)[O-])c(C)n1,1.3124,228.479,353.1505256,0.646973411
MUGTAJ,O=C1Cc2ccccc2[C@@H](c2cccc([N+](=O)[O-])c2)N1,1.3794,208.786,322.7356865,0.646925669
BUKSUY,CCOC(=O)C1=C(C)OC(N)=C(C#N)C1c1ccccc1[N+](=O)[O-],1.3882,254.68,393.6791557,0.646922745
GEJKUB,O=[N+]([O-])c1ccc(CNc2ccccc2)cc1,1.3324,183.903,284.2735296,0.646922703
ZENXOF,CCOC(=O)Nc1ccc(/C=C/c2ccc([N+](=O)[O-])cc2)cc1,1.3503,248.304,383.8343614,0.646904042
NABLIO,COc1ccc(C2=NN(C(=O)c3ccccc3[N+](=O)[O-])C(c3ccc(OC)cc3)C2)cc1,1.3674,338.707,523.5955604,0.646886692
GIXJUU,O=[N+]([O-])c1ccc(/N=N/c2ccc(N(Cc3ccccn3)Cc3ccccn3)cc2)cc1,1.3474,338.15,522.7608902,0.646854052
ROKREO,CCN(CC)c1ccc(/N=N/c2ccccc2[N+](=O)[O-])cc1,1.3246,241.769,373.7703651,0.646838333
GALTOC,Cc1cc(/N=C2\N=[N+](c3ccc([N+](=O)[O-])cc3)[N-]C23CCCC3)no1,1.3954,261.819,404.7708196,0.646832695
QUYDAQ,O=C(CCCOc1cccc2cccnc12)N/N=C/c1ccc([N+](=O)[O-])cc1,1.3679,296.9,459.0447665,0.646777878
GUSWIA,Cc1ncc2c(c1OC(=O)c1ccc([N+](=O)[O-])cc1)COC(C)OC2,1.4126,261.621,404.5121398,0.646756857
VUYWUI,Nc1ccc([N+](=O)[O-])cc1Oc1ccccc1,1.3845,178.472,275.9500306,0.646754775
BEVPEX,O=[N+]([O-])c1cc(-c2ccccc2)c(O)c(-c2ccccc2)c1,1.3426,232.836,360.0352269,0.646703385
BICCIZ13,COC(=O)C1=C(C)NC(C)=C(C(=O)OC)C1c1ccccc1[N+](=O)[O-],1.3913,267.157,413.1107864,0.646695775
VUMXEJ,CCc1ccc(NC2=C(C(=O)c3ccc([N+](=O)[O-])cc3)C(c3ccc(OC)cc3)N(CC#N)C2=O)cc1,1.3549,393.258,608.1243316,0.646673681
SINBEX,CCOC(=O)c1c(C)nc(Oc2ccccc2[N+](=O)[O-])c(C#N)c1N,1.4026,261.913,405.0230388,0.646661979
EJEJOS,O=[N+]([O-])c1cccc2nc(-c3ccccn3)c(-c3ccccn3)nc12,1.3815,255.798,395.5765259,0.646646055
JULGUS,C/C(=N\N=C(/C)c1ccccc1[N+](=O)[O-])c1ccccc1[N+](=O)[O-],1.3641,256.699,396.9827426,0.646625086
TUVMUU,O=[N+]([O-])c1cc([N+](=O)[O-])c(NCCCCO)cc1NCCCCO,1.4049,261.509,404.4279475,0.646614562
OJIRUV,CC1(c2ccccc2)CC(=O)OC1c1ccc([N+](=O)[O-])cc1,1.3635,233.962,361.8367724,0.64659542
LOQFIJ,COC(=O)C1(c2ccccc2)Nc2ccccc2CC1[N+](=O)[O-],1.3781,243.169,376.0913854,0.646568918
CACNIE,COC(=O)C1(OC(=O)c2ccc([N+](=O)[O-])cc2)CC2C=CC1C2,1.4069,241.98,374.2693509,0.646539717
YODHUV,CN1CN/C(=N\[N+](=O)[O-])N(C)C1,1.428,130.129,201.2852736,0.646490415
HUMSAM,N#Cc1nnn(Cc2ccccc2)c1-c1ccc([N+](=O)[O-])cc1,1.3578,241.215,373.1290105,0.646465413
EJEXUO,O=[N+]([O-])c1ccc(/N=C(\C2CCCC2)N2CCOCC2)n2nnnc12,1.426,259.835,401.9384917,0.646454633
AYECEM,CCc1nn(C)c(C(=O)N2CCOC2=O)c1[N+](=O)[O-],1.4446,199.208,308.1648385,0.646433256
POMWOE,CC(=O)C(=Cc1cccc([N+](=O)[O-])c1)C(C)=O,1.3433,186.246,288.1218361,0.64641404
RUCRIS,COC(=O)c1c(C(=O)OC)c2c(-c3ccccc3)c(-c3ccc([N+](=O)[O-])cc3)c3cccc1n32,1.3835,352.321,545.0710786,0.646376251
DUHPOL,CC1([N+](=O)[O-])C=C(c2ccccc2)C(=O)C(c2ccccc2)([N+](=O)[O-])C1[N+](=O)[O-],1.4207,299.993,464.1439532,0.646336116
QEXZIF,Cc1nn(-c2ccc([N+](=O)[O-])cc2)c(C)c1/N=N/c1ccccc1,1.3501,255.28,394.9752964,0.646318902
SOZVOU,C[C@]1(c2ccc([N+](=O)[O-])cc2)N=C2C=CC(=O)c3cccc(c32)N1,1.3868,246.939,382.0956914,0.64627528
TIJPIM,O=[N+]([O-])c1ccc(C(c2ccccn2)C(c2ccccn2)c2ccc([N+](=O)[O-])cc2[N+](=O)[O-])c([N+](=O)[O-])c1,1.4206,389.859,603.2947893,0.646216422
SOGVOZ,CN1NC(C)(C)n2cnc([N+](=O)[O-])c2C1=O,1.44,167.713,259.5681429,0.646123203
KUGXOZ,O=C(c1ccc([N+](=O)[O-])cc1)N1CC(=O)N2CCc3ccccc3C2C1,1.3953,269.998,417.8836359,0.646108095
SABDAC,COc1ccc(Oc2ncccc2[N+](=O)[O-])cc1,1.3913,189.756,293.6922107,0.64610498
AWUJIM,COc1ccc(/C=N/NC(=O)c2cccc([N+](=O)[O-])c2)cc1,1.3608,235.811,364.9837303,0.646086333
FULYEQ10,Cc1c(C)c(C)c([N+](=O)[O-])c([N+](=O)[O-])c1C,1.3751,174.825,270.6034187,0.646056139
AWULAG,COc1ccccc1/C=N/NC(=O)c1cccc([N+](=O)[O-])c1,1.3737,233.578,361.5562788,0.646034971
AFOPAM,O=C1C=CC([N+](=O)[O-])=C/C1=C/NC1CCCCC1/N=C/c1cc([N+](=O)[O-])ccc1O,1.4011,315.534,488.4710834,0.645962495
ZUCMOB,Cc1noc(C)c1/N=N/c1ccccc1[N+](=O)[O-],1.3883,190.132,294.3402917,0.645959814
IBOSAU,COc1ccc(C2=Nc3ccccc3NC(c3ccc([N+](=O)[O-])cc3)C2)cc1,1.3592,294.48,455.8863085,0.645950524
PUJLIR,CCOC(=O)c1cc(C(=O)c2ccc([N+](=O)[O-])cc2)n[nH]1,1.41,219.898,340.446402,0.645910777
JAHRES,O=C(/C=C/c1ccc2ccc3cccc4ccc1c2c34)c1ccc([N+](=O)[O-])cc1,1.3496,299.702,464.0048045,0.645902795
JOTDOL,CCC(=O)N1CN(C(=O)CC)[C@@H]2OCN([N+](=O)[O-])[C@@H]21,1.438,202.961,314.2345638,0.64589012
VUZTUG,COc1cc(/C=N/c2c(C)n(C)n(-c3ccccc3)c2=O)cc([N+](=O)[O-])c1OCc1ccc([N+](=O)[O-])cc1,1.3904,398.938,617.660729,0.645885324
ABUVOJ,CCN(CC)c1ccc(/C=N/c2ccc([N+](=O)[O-])cc2)c(O)c1,1.3327,252.01,390.1888425,0.645866751
NBPHEN,O=[N+]([O-])c1ccc(-c2ccccc2)cc1,1.3237,161.285,249.7277051,0.645843439
HICDAY,COc1ccc(/C=C/c2ccc([N+](=O)[O-])cc2)cc1O,1.3564,214.341,331.8806036,0.645837683
MCNBZP10,COC(=O)c1ccc(C(=O)c2c(C)cc(C)cc2C)c([N+](=O)[O-])c1,1.3496,259.936,402.489614,0.645820391
TOYYEL,C[C@H](c1ccccn1)c1ccc([N+](=O)[O-])cc1[N+](=O)[O-],1.3849,211.461,327.4375562,0.645805577
OFEZIK,COC(=O)CC1(C(=O)OC)C=CC=C1c1ccc([N+](=O)[O-])cc1,1.3817,246.111,381.0954257,0.645798882
NESHOI,O=[N+]([O-])c1c2nc(c(-c3ccccc3)c3ccc(cc4nc(c(-c5ccccc5)c5ccc1[nH]5)C=C4)[nH]3)C=C2,1.3489,403.21,624.3648254,0.645792305
PABRUG,COC1=C(C(=O)c2ccccc2[N+](=O)[O-])C(=O)CCC1,1.3905,212.148,328.5126256,0.645783399
IHAJEI,COC(=O)C1NC(c2ccccc2)C([N+](=O)[O-])C1c1ccccc1,1.3526,258.554,400.3888265,0.645757281
XUTWEQ,C=CC1C(OC(=O)c2ccc([N+](=O)[O-])cc2)C=CC(=O)C1C,1.3611,237.218,367.348758,0.645756913
XAFVIK,COC(=O)C(C)N1C(=O)c2ccccc2NC1c1ccccc1[N+](=O)[O-],1.3985,272.295,421.6710708,0.645752149
LIXWAS,COc1ccc(/C=N/Nc2ccccc2[N+](=O)[O-])cc1,1.361,213.594,330.7725973,0.64574273
IHASES,O=C(O)/C(=C/c1ccccc1[N+](=O)[O-])c1ccccc1,1.3644,211.464,327.4814294,0.645728218
NIQVIV,O=C(c1ccccc1)c1cc(C(=O)c2ccc([N+](=O)[O-])cc2)n2c1-c1ccccc1CC2,1.3539,334.318,517.7513308,0.645711522
EGAZIX,COC(=O)c1ccc(-c2ccc([N+](=O)[O-])cc2)c(N)c1-c1ccc(OC)cc1,1.3697,296.002,458.4278908,0.645689335
HEXYAL,COc1ccccc1NC(=O)c1cc(C)cc(NC(=O)c2cc(C)cc([N+](=O)[O-])c2O)c1OC,1.3866,359.689,557.0705815,0.645679402
CIZMUT01,COc1ccc(-c2nc(-c3cccc([N+](=O)[O-])c3)[nH]c2-c2ccc(OC)cc2)cc1,1.3588,316.532,490.2333129,0.645676235
VUZHII,Cc1ccccc1C(=O)N/N=C/c1ccc([N+](=O)[O-])cc1,1.3496,224.883,348.3318798,0.645599823
TOYYIP,Cc1ccnc(-c2cc(Cc3ccc([N+](=O)[O-])cc3[N+](=O)[O-])ccn2)c1,1.3827,271.451,420.4661598,0.645595356
SOMJEM,Cc1nn(-c2ccccc2)c(Oc2ccc([N+](=O)[O-])cc2)c1C=O,1.3829,250.465,387.9703957,0.645577608
EVULUC,COc1ccc(C(=C([N+](=O)[O-])[N+](=O)[O-])c2ccc(OC)cc2)cc1,1.3949,253.679,392.9596818,0.645559867
BAZPUO,COc1cc(N(C)C)ccc1[N+](=O)[O-],1.3603,154.529,239.3724958,0.645558712
PIZHAH,CCC1(O[N+](=O)[O-])CN(N=O)C1,1.4398,130.34,201.9054613,0.645549651
GAHKAB02,CC(=O)Nc1cc([N+](=O)[O-])ccc1N(C)C,1.3649,175.218,271.4284599,0.645540265
CECPIL,Cc1ccc(Oc2ccc(-c3nc(C)n(C)c3[N+](=O)[O-])cc2[N+](=O)[O-])cc1,1.3955,282.762,438.0414926,0.645514192
ZOLHUG,N#Cc1c(-c2ccc([N+](=O)[O-])cc2)ccn(N)c1=N,1.3826,197.761,306.3637944,0.64551035
CUGSOM,CN1c2ccccc2N(Cc2ccc([N+](=O)[O-])cc2)c2ccccc21,1.351,262.723,407.0154898,0.64548649
ECECIA,C=CCCOC12C=CC(COC(=O)c3ccc([N+](=O)[O-])cc3)(CC(=O)C1)O2,1.3864,288.44,446.9104745,0.645408905
PEMCAM06,CN(C)c1ccc(/C=C/[N+](=O)[O-])cc1,1.3104,157.105,243.4252525,0.645393189
SALWUA,Cn1c(-c2ccc([N+](=O)[O-])cc2)c(-c2ccc([N+](=O)[O-])cc2)c2ccccc21,1.3755,290.705,450.4400209,0.645380043
VIWTAW,N#Cc1ccc([C@]2([N+](=O)[O-])CO[C@@H](c3ccccc3)OC2)cc1,1.3647,243.512,377.3315378,0.645352894
IHUBUK,O=C1c2ccc([N+](=O)[O-])cc2C(O)C12CCCCC2,1.387,201.731,312.6047867,0.645322812
KOVGUX,O=[N+]([O-])C(=C(Nc1ccccc1)Nc1ccccc1)[N+](=O)[O-],1.402,229.363,355.4369263,0.645298738
POQFEH,CCOC(=O)C12CCC1(C)CC/C2=N\Nc1ccc([N+](=O)[O-])cc1[N+](=O)[O-],1.4034,287.186,445.0728481,0.645256167
MAZWEQ01,O=[N+]([O-])c1ccc(/C=N/CCCCCC/N=C/c2ccc([N+](=O)[O-])cc2)cc1,1.3294,308.005,477.3745397,0.645206173
MEGMIV,C/C(=N\C(=O)OCc1ccc([N+](=O)[O-])cc1)N1CC[C@H](O)C1,1.3935,236.134,365.9836329,0.645203716
KAYTUZ,NCCNc1ccc([N+](=O)[O-])cc1,1.3551,143.171,221.9097936,0.645176573
REVRER,CCn1cc2c([N+](=O)[O-])cccc2n1,1.3838,147.931,229.2888948,0.645172982
GUFBEO,COC(=O)C(c1c[nH]c2ccccc12)C(C[N+](=O)[O-])c1c[nH]c2ccccc12,1.3742,294.024,455.7376114,0.645160708
GUMLEH,Cc1ccc(C2C([N+](=O)[O-])=C3C=Cc4ccc5cccnc5c4N3C2C(=O)c2ccccc2)cc1,1.3498,364.436,564.8823966,0.645153756
NACHEI,Cc1cnc(-c2ccc([N+](=O)[O-])cc2)o1,1.3838,157.976,244.8700889,0.645142086
YOCSEP,O=[N+]([O-])c1ccc(Oc2ccc3ccccc3c2-c2c(Oc3ccc([N+](=O)[O-])cc3)ccc3ccccc23)cc1,1.3817,409.465,634.7370816,0.645093869
SAGRAT,O=C(OCc1ccccc1)c1ccc([N+](=O)[O-])cc1,1.3641,201.876,312.9451377,0.645084316
ZOKWED,Cc1ccc(NN=C2C(=O)CC(C)(C)CC2=O)c([N+](=O)[O-])c1,1.3754,236.073,365.9766157,0.64504941
OFOMAX,O=C(OCCn1ccc2ccccc21)c1ccc([N+](=O)[O-])cc1,1.3719,242.12,375.3512279,0.645049175
ZIVMOG,O=[N+]([O-])c1cn(C(c2ccccc2)(c2ccccc2)c2ccccc2)cn1,1.3286,286.32,443.8750013,0.645046464
QADNIU,Cc1ccc([N+](=O)[O-])cc1NC1C2=C(OC1(C)C)c1ccccc1C(=O)C2=O,1.3798,293.542,455.0722438,0.645044834
ZEJVAL,O=[N+]([O-])c1ccc(N/N=C/c2ccc(N3CCCCCC3)cc2)cc1,1.3267,273.035,423.2849948,0.645038221
QOCWUC,CC1(C)C=C2c3c(nc4ccccc4c3C(=O)N2c2cccc([N+](=O)[O-])c2)C1,1.3711,289.936,449.4883538,0.645035622
QATYES,O=[N+]([O-])c1nnn(Cc2ccccc2)c1-c1cccc2ccccc12,1.3545,261.034,404.7127713,0.644985823
WAMCIZ,COC(=O)N1C(=O)C2(Cc3ccccc3N3CCCC32)c2cc([N+](=O)[O-])ccc21,1.4116,298.283,462.4793006,0.644965082
ADAMEY,Cc1c(/N=C/c2ccccc2[N+](=O)[O-])c(=O)n(-c2ccccc2)n1C,1.3552,265.632,411.868796,0.64494325
KOVGIL,CN(C)C(=C([N+](=O)[O-])[N+](=O)[O-])N(C)C,1.4109,154.917,240.2048129,0.644937119
LEFHAH,COC(=O)[C@H](C)NC(=O)c1c(OC)c([N+](=O)[O-])cc([N+](=O)[O-])c1OC,1.4506,263.62,408.7745931,0.644903094
ITIKAY01,CCOC(=O)/C(=N\Nc1ccc([N+](=O)[O-])cc1O)C(C)=O,1.4238,221.939,344.1568833,0.644877411
BOYCOI,COC(=O)C1=C(C)NC(C)=C(C(C)=O)C1c1cccc([N+](=O)[O-])c1,1.3631,259.341,402.1714342,0.644851867
DOSFEX,C=C(c1ccccc1)C(C(CCO)c1ccc([N+](=O)[O-])cc1)[N+](=O)[O-],1.3484,271.676,421.3342346,0.644799254
FITPED,O=C1C2CC3CC1CC(c1ccc([N+](=O)[O-])cc1)(C3)C2,1.3767,210.865,327.0307783,0.644786405
OLIHIA,COC(=O)/C=C(\Nc1ccccc1[N+](=O)[O-])C(=O)OC,1.4079,212.993,330.3384271,0.644772096
BOFSEU,COCC1CCN(c2ccc(OCc3cccc([N+](=O)[O-])c3)cc2)C(=O)O1,1.3828,288.138,446.8922662,0.644759424
ZZZFKK01,CN(C)c1ccc(/C=C(\C#N)c2ccc([N+](=O)[O-])cc2)cc1,1.2969,241.974,375.3174017,0.644718308
PIRYUM,COc1ccc2c(c1)C1c3c(c4ccccc4oc3=O)OC(c3ccccc3[N+](=O)[O-])(N2)C1(C)C,1.3968,360.358,558.9400159,0.644716767
PUGYIA,O=Cc1cc([N+](=O)[O-])ccc1N1CCCCC1,1.3602,184.258,285.8014958,0.644706213
IHETEU,CN(C(=O)c1c(/N=N/c2ccccc2)cc([N+](=O)[O-])cc1[N+](=O)[O-])c1ccccc1,1.381,314.053,487.12615,0.644705689
QEYGOS,CC1(C)C(/C=C/c2cccc([N+](=O)[O-])c2O)=Nc2ccccc21,1.339,246.348,382.1191808,0.644688915
QIMPEK,CC1(C)CC(=O)C2=C(C1)OC(N)=C(C#N)C2c1ccc([N+](=O)[O-])cc1[N+](=O)[O-],1.4161,290.381,450.4258583,0.644681016
HOSPAG,COC(=O)c1nc(C(=O)OC)c(C(=O)OCc2cc([N+](=O)[O-])cc([N+](=O)[O-])c2)c(OC)c1OC,1.4596,351.385,545.0550007,0.644678059
PUGTIV,O=[N+]([O-])c1ccccc1C1OCC(O)CO1,1.438,167.553,259.9032111,0.644674605
IDULEZ,CCOC(=O)Cn1cccc([N+](=O)[O-])c1=O,1.4268,169.61,263.1017157,0.644655621
INEQIB,CN1CC(c2cccc([N+](=O)[O-])c2)C2(C(=O)c3ccccc3C2=O)C12C(=O)Nc1ccccc12,1.3905,348.853,541.151946,0.644648888
SAGPIZ,O=[N+]([O-])c1ccc(OC2CCCO2)cc1,1.3976,160.137,248.4113211,0.644644533
TIMKIL,CN1N=C(c2cccc([N+](=O)[O-])c2)[C@H]2CCC[C@]1(O)C2,1.381,213.266,330.829748,0.644639732
BOPJOG,O=C(c1ccccc1)c1ccc(COc2ccc(/C=C/c3ccc([N+](=O)[O-])cc3)cc2)cc1,1.3274,350.905,544.3763785,0.644599975
WADYAD,CCOC(=O)c1ccn2ccnc2c1-c1ccc([N+](=O)[O-])cc1,1.3915,239.302,371.2519297,0.644581161
PIWXAX,O=c1c(C(C[N+](=O)[O-])c2ccccc2)coc2ccccc12,1.3795,228.959,355.213665,0.644566982
FOXFIK,COC(=O)C(=O)C1(C(=O)OC)C(C)=NC(c2ccc([N+](=O)[O-])cc2)=Nc2ccccc21,1.4019,323.042,501.1847512,0.644556721
FODQIB,COCCOC(=O)c1c(N)oc2ccc(O)c(-c3ccc([N+](=O)[O-])cc3)c12,1.4213,280.217,434.7443917,0.644555756
QEPVEN,COC(=O)CC1(C)Oc2ccc([N+](=O)[O-])cc2C1=O,1.4268,198.838,308.491991,0.644548338
XICFUL,O=C1c2ccccc2C(=O)C12C(c1cccc([N+](=O)[O-])c1)C([N+](=O)[O-])C1CCCN12,1.4212,306.603,475.6893804,0.644544555
CIQRIE,O=[N+]([O-])c1ccc(OCCCCOc2ccc([N+](=O)[O-])cc2)cc1,1.3901,255.705,396.7244434,0.644540573
AFAZUD,O=[N+]([O-])[C@@]12C[C@H]3C[C@@H]1C[C@@]3([N+](=O)[O-])C2,1.4606,145.136,225.1849739,0.644519026
DAHLAZ,O=[N+]([O-])c1ccc(N/N=C/c2ccccc2)cc1,1.3436,192.044,297.9651394,0.64451835
ZONKAO,CN(C)c1cccc(OCCOc2ccc([N+](=O)[O-])cc2)c1,1.3465,240.15,372.6041787,0.644517731
ROGDEX,COc1ccc(/N=C/c2ccccc2[N+](=O)[O-])cc1,1.3401,204.522,317.330353,0.644508154
DAWNEU,CC(C)(C)C1=C[C@@](C)([N+](=O)[O-])[C@H]([N+](=O)[O-])[C@@](C)([N+](=O)[O-])C1=O,1.4189,237.683,368.7829324,0.644506508
ADEZUF,O=[N+]([O-])C(CO)CO,1.4444,89.68,139.1545869,0.644463126
TONFUX,O=[N+]([O-])c1ccc(N2CCCCC2)c([N+](=O)[O-])c1,1.4099,190.59,295.7380383,0.644455482
VENKOP,COc1ccc(/N=C/C=C/c2ccccc2[N+](=O)[O-])cc1,1.3276,227.375,352.8592909,0.644378669
GUBQEB,CCOC(=O)C1C(=O)OC(C)(C)C1C[N+](=O)[O-],1.4031,186.913,290.0693819,0.644373421
WUDNAL,CC1=C2CCOc3ccc([N+](=O)[O-])c(c32)C1(C)C,1.3557,193.441,300.2299063,0.644309564
YULWUA,Cc1ccc([N+](=O)[O-])cc1NC(=O)c1ccccc1,1.3505,202.881,314.8866391,0.644298534
TIJPEI,O=c1c2ccc([N+](=O)[O-])cc2[n-][n+]2ccccc12,1.582,222.488,573.4606646,0.644270123
HAYZIR,CCCCOC(=O)c1cc([N+](=O)[O-])cc([N+](=O)[O-])c1,1.4151,202.665,314.5758404,0.644248458
CUPPIO,NC(=O)[C@@H](/N=C/c1ccc([N+](=O)[O-])cc1)c1ccccc1,1.3482,224.628,348.6935951,0.644198813
SIMGUR,O=C(CCN1CCN/C1=N\[N+](=O)[O-])c1ccccc1,1.3815,202.952,315.0591414,0.64417112
ZZZPGU02,O=[N+]([O-])c1ccc(/C=C/c2ccccc2)cc1,1.3087,183.975,285.6010941,0.6441677
IQUHUZ,CCOC(=O)Cn1cc2ccc([N+](=O)[O-])cc2n1,1.4038,189.794,294.638746,0.644158321
AGUNUN,CCO[C@H](C)n1ncc2c([N+](=O)[O-])cccc21,1.3689,183.707,285.1924209,0.644151059
YIZLAX,Cc1ccc(C2(O)Cc3c([N+](=O)[O-])c(O)c4ccccc4c32)cc1,1.3671,251.23,390.0364563,0.644119277
TUVNEF,O=[N+]([O-])c1cc([N+](=O)[O-])c(NCCCCCO)cc1NCCCCCO,1.3776,287.405,446.2322885,0.644070381
KOXHUC,CC(C(=O)c1nccn1-c1ccccc1)C(C[N+](=O)[O-])c1ccccc1,1.3236,282.104,438.0373756,0.644018104
CUHZEM,O=C1c2ccccc2NCN1/N=C/c1ccc([N+](=O)[O-])cc1,1.3904,227.73,353.6310525,0.643976253
IGASAL,O=[N+]([O-])c1ccc(NN=C2CCCC2)c([N+](=O)[O-])c1,1.4288,197.654,306.9295706,0.643971839
NIJNOL,O=C(Nc1cccc2cccnc12)C1C(c2ccccc2)C1c1cccc([N+](=O)[O-])c1,1.3437,325.609,505.6353877,0.643960071
SORBAC,O=[N+]([O-])c1ccc(-n2ccnc2-c2ccccc2)cc1,1.3494,210.047,326.2193281,0.643882756
BURJED,O=C1CCCC(OC(=O)c2cc([N+](=O)[O-])cc([N+](=O)[O-])c2)CCC1,1.4223,252.658,392.4070898,0.643867062
HEVYEM,CCOC(=O)/C(=C\Nc1cccc([N+](=O)[O-])c1)C(=O)c1ccccc1,1.3551,268.348,416.7809707,0.64385857
NMBYAN,Cc1ccc(/N=C/c2ccc([N+](=O)[O-])cc2)cc1,1.3096,196.008,304.4389515,0.643833514
HULFAX,O=C(/C(=N\N=C\c1ccc([N+](=O)[O-])cc1)c1ccccc1)c1ccccc1,1.3314,286.766,445.4101648,0.643824552
DMNPPO,CN1C(=O)C[C@](C)(c2ccccc2[N+](=O)[O-])C1=O,1.3887,190.989,296.6523808,0.643814149
DAGREJ,CC1(C)[C@H]2CC[C@]13[C@H](C2)OC(=O)N3C(=O)[C@@H](O)C[N+](=O)[O-],1.4414,221.117,343.4523638,0.643806895
VIGWOY,C#CC1(OC(=O)c2cc([N+](=O)[O-])cc([N+](=O)[O-])c2)C(=O)OCC1(C)CCOCc1ccccc1,1.3976,358.073,556.2069914,0.643776518
GEVSIM,COC(=O)C1=C(C)N[C@@H](c2ccccc2)C([N+](=O)[O-])=C1,1.3692,213.979,332.4297032,0.643681951
VIRWIC,O=[N+]([O-])O[C@@H]1C[C@H]2CC[C@@]13CCC[C@]23O[N+](=O)[O-],1.4769,186.779,290.186377,0.643651856
HIPSII,Cc1ccc(N2C[C@@H]3[C@@H](C)[C@@]4([N+](=O)[O-])C=C[C@]3(C2)O4)cc1,1.3613,224.659,349.0416304,0.643645286
FIWLEF,CC(C)CNc1ccc([N+](=O)[O-])cc1[N+](=O)[O-],1.3861,184.365,286.43955,0.643643659
SAHHUG,O=C1CCCC(O)=C1C(/C=C/c1ccccc1[N+](=O)[O-])C1=C(O)CCCC1=O,1.3743,297.962,462.9535874,0.643610954
IZUFUE,CCc1nc2ccccc2cc1[N+](=O)[O-],1.3527,159.659,248.0701281,0.643604295
NASXEN,O=C1OC2(CCCCC2)OC(=O)C1=CNc1ccccc1[N+](=O)[O-],1.4222,249.567,387.7701087,0.64359525
SUZRAH,O=[N+]([O-])/C=C1\NCCN1C[C@@H]1CCOCO1,1.4257,171.746,266.8540707,0.643595204
JERJAS,COC(=O)CCC1([N+](=O)[O-])C=CCCC1c1ccc2c(c1)OCO2,1.3891,256.294,398.2298802,0.643583048
MEVZES,O=[N+]([O-])c1cccc2c1-c1ccccc1CC2,1.3415,179.313,278.6180781,0.643579918
XIWXOQ,CC1(C)CCC2=C(O1)c1ccccc1/C(=N/c1ccc([N+](=O)[O-])cc1)C2=O,1.3629,283.961,441.2264485,0.643572027
SOYJOF,O=[N+]([O-])c1ccc(Nn2cnc(-c3ccccc3)c2-c2ccccc2)cc1,1.3414,283.729,440.8715052,0.643563933
SOPTAS,CC(NC(=O)OCC(c1ccc([N+](=O)[O-])cc1)c1ccc([N+](=O)[O-])cc1)C(=O)O,1.4109,305.33,474.4421702,0.643555778
OVOLES,C=CC(c1ccc([N+](=O)[O-])cc1)C(O)C(=O)c1ccccc1,1.3302,238.687,370.8949326,0.643543438
SAWFUS,COC(=O)/C(=N\c1ccc([N+](=O)[O-])cc1)c1ccccc1,1.3584,223.486,347.2782399,0.643535858
TUVMEE02,O=[N+]([O-])c1cc([N+](=O)[O-])c(NCCCO)cc1NCCCO,1.4201,236.373,367.3206441,0.643505896
WIXCAI,CC(=O)NC(c1cccc([N+](=O)[O-])c1)c1c(O)ccc2ccccc12,1.3604,264.016,410.2807543,0.643500815
LIFJOB,CN1c2cccc3cccc(c23)NC1(C)c1ccc([N+](=O)[O-])cc1,1.3505,252.475,392.4107566,0.643394698
HIRKOL,COC1Oc2ccc([N+](=O)[O-])cc2C(OC)C1c1ccccc1,1.3734,245.132,381.0053757,0.643381998
FIWGAV,O=C(Nc1cccc2cccnc12)C1C(c2cccc([N+](=O)[O-])c2)CC1c1cccc([N+](=O)[O-])c1,1.3731,364.255,566.1633383,0.643374403
FEVZOV,O=C(OC1C2C=CC13CCC1CC13C2)c1cc([N+](=O)[O-])cc([N+](=O)[O-])c1,1.4242,267.12,415.2092745,0.643338231
HIHMAM,C=CC(=O)OCCCCCCOc1ccc(C(=O)Oc2ccc3nc(-c4ccc([N+](=O)[O-])cc4)oc3c2)cc1,1.3657,414.695,644.6499975,0.643287058
EDEPOT,O=C1CC(c2ccccc2)OC(c2ccc([N+](=O)[O-])cc2)C1,1.3575,233.784,363.436051,0.643260346
KIKKIZ,O=C1N[C@@H](c2ccc([N+](=O)[O-])cc2)[C@H]1Oc1ccccc1,1.3826,219.477,341.1997405,0.643250782
MUXNEZ,O=C1C2CCCN2C(c2ccc([N+](=O)[O-])cc2)N1c1ccccc1,1.3669,252.499,392.5559163,0.64321792
DOVCIB,Cc1ccc(/C=C/c2c([N+](=O)[O-])cc([N+](=O)[O-])c(/C=C/c3ccc(C)cc3)c2[N+](=O)[O-])cc1,1.3624,348.977,542.5561774,0.64320897
SESVIW,CC1(C)CC(=O)C2=C(C1)N(C1CC1)C1=C(C(=O)c3ccccc31)C2c1ccc([N+](=O)[O-])cc1,1.3471,348.981,542.6117527,0.643150463
DACKAW,COc1ccc(OC)c(C2CC3C(/C=C/[N+](=O)[O-])=CC2C(=O)C3(OC)OC)c1,1.3751,302.235,469.942738,0.643131547
YAHDIW,O=[N+]([O-])c1cccc(NCc2ccccc2)c1,1.3284,183.373,285.1295172,0.643121771
CAXNIY,O=[N+]([O-])C1([N+](=O)[O-])[C@H]2C[C@@H]3C[C@@H](C[C@H]1C3)C2,1.4499,166.535,258.9516171,0.643112415
WASTIT,COCCOC(=O)C1=C(C)NC(C)=C(C(=O)OCCCO[N+](=O)[O-])C1c1cccc([N+](=O)[O-])c1,1.4078,363.474,565.1961376,0.643093567
LIRLOO,CC12CCC(Cc3cc(COC(=O)c4ccc([N+](=O)[O-])cc4)c(COC(=O)c4ccc([N+](=O)[O-])cc4)cc31)O2,1.4062,404.128,628.4207569,0.64308506
OJUFIJ,O=C1C=C[C@H]2[C@H]3C=CC(=C(c4ccccc4)c4ccccc4)[C@H]3[C@@H]1N2c1ccc([N+](=O)[O-])cn1,1.3483,354.152,550.731335,0.643057654
PESQOW,Cc1cccc(-c2nc3ccccc3n2-c2ccc([N+](=O)[O-])cc2)c1,1.3396,262.354,407.9805452,0.643055173
QENQEF,O=[N+]([O-])c1ccc(N/N=C(\c2ccccc2)C2CCc3ccccc3-c3ccccc3C2)c([N+](=O)[O-])c1,1.3515,388.881,604.7456172,0.643048894
IQONOS,O=C(CC1(O)COC(OCc2ccccc2)C2OC21)c1ccc([N+](=O)[O-])cc1,1.3915,295.54,459.5931599,0.643046994
IQEMEX,CCOC(=O)/C=C(/c1ccc(OC)cc1)c1ccccc1[N+](=O)[O-],1.3403,260.614,405.2823868,0.643042995
PUTNOJ,Cn1c2c(c3ccccc31)C(c1ccccc1)C1C(=O)N(c3ccc([N+](=O)[O-])cc3)C(=O)C1C2,1.3691,351.879,547.2098562,0.643042146
KOPKOS,C=C/C(=C\c1ccc(-c2ccccc2)cc1)c1cc2ccc([N+](=O)[O-])cc2n1-c1ncccn1,1.3247,358.005,556.7825275,0.642988927