name,smiles,Density,Vint,Veff,pc
QUKXAV,CN(C)c1ccc2c(c1)C1(OCCO1)c1cc([N+](=O)[O-])ccc1-2,1.3519,240.125,383.380086,0.626336653
TOVLUN,O=CC12CC=CC1(COC(=O)c1ccc([N+](=O)[O-])cc1)CCC2,1.3468,243.341,388.5304299,0.626311303
GOKSIJ,Cc1c2c(c(-c3c(O)c([N+](=O)[O-])c(C)c4c3CCC(C)(C)O4)c(O)c1[N+](=O)[O-])CCC(C)(C)O2,1.3664,359.397,573.8507685,0.626290004
COVJOO,O=[N+]([O-])c1ccc(C2OC2C(O)c2ccccc2)cc1,1.3249,212.794,339.7711909,0.626286176
PILGAV,CC(C)(C)Nc1c(-c2ccccc2[N+](=O)[O-])nc2ccccn12,1.3019,247.753,395.5936905,0.626281475
ZEXFIU,O=[N+]([O-])c1ccc(N/N=C2\C=C3CCCCC3CC2)c([N+](=O)[O-])c1,1.365,251.527,401.6253011,0.626272795
NUPYIJ,COC(=O)/C(=N\C12CCCCC1c1ccccc1O2)c1ccc([N+](=O)[O-])cc1,1.3409,294.829,470.7702815,0.626269354
SOBDOD,CC1=CC(=O)OC(c2ccc([N+](=O)[O-])cc2)C1,1.3486,179.724,286.9895168,0.626238903
SAZJIN,CCOc1ccc(/C=N/Nc2ccc([N+](=O)[O-])cc2)cc1OC,1.3224,247.783,395.7134279,0.626167783
TADVAW,CC(C)/C=N/Nc1ccc([N+](=O)[O-])cc1[N+](=O)[O-],1.3603,192.689,307.73636,0.626149604
SUNMET,O=[N+]([O-])c1ccc(N/N=C2\CCCCC3(CCCO3)C2)c([N+](=O)[O-])c1,1.3684,264.535,422.483835,0.6261423
LAGZUO,CCC12C=C(C(=O)OCCO[N+](=O)[O-])n3c4c(c5ccccc53)CCN(CCC1)C42,1.3616,313.989,501.4721991,0.626134411
KUKLAE,CC(C)(C)OC1C2C=CC1C(C(=O)c1cc([N+](=O)[O-])ccc1O)C2,1.3247,259.902,415.1085981,0.626106039
LUFXIV,CCCCCCc1cn(-c2ccc([N+](=O)[O-])cc2)nn1,1.2959,219.946,351.2939469,0.626102448
ANUDEU,CCN(CC)c1ccc(/C=C(\C#N)c2ccc([N+](=O)[O-])cc2)c(OCc2ccccc2)c1,1.2666,350.657,560.0750323,0.626089327
HANDEH,CCOC(=O)C1=C(N)N(c2ccc(C)cc2)C=C(C(=O)OC)C1c1cccc([N+](=O)[O-])c1,1.3285,342.12,546.4401302,0.626088717
KENHIW,Cc1ccc(-c2c(-c3ccc([N+](=O)[O-])cc3)c(C#N)c(N)n2-c2ccc(C)cc2)cc1,1.2786,331.89,530.1018412,0.626087243
TUVZEP,COc1cc2c(cc1OC)C1CC(c3ccccc3)OC(c3ccc([N+](=O)[O-])cc3)N1CC2,1.3225,350.743,560.2521255,0.626044925
YISZIJ,N/N=C(\CC(c1ccccc1[N+](=O)[O-])N1N=C(c2ccccc2)CC1c1ccccc1[N+](=O)[O-])c1ccccc1,1.3147,422.386,674.7509693,0.625987985
JUVNUJ,CC(C)(C)C1=C(C(=O)OCc2ccc([N+](=O)[O-])cc2)N2C(=O)C(C)(C)C2O1,1.3244,293.665,469.1255014,0.625983877
YAMLOP,Cc1cc(C)n(C(C(=O)NCCn2c([N+](=O)[O-])cnc2C)n2nc(C)cc2C)n1,1.3258,313.759,501.2576295,0.62594359
XUTYAO,C=CC1C(C)C(=O)C2OC2C1OC(=O)c1ccc([N+](=O)[O-])cc1,1.3527,243.639,389.2655797,0.625894024
CUTWIX,CC(C)(C)C1=C[C@@](C)([N+](=O)[O-])C(=O)[C@](C)([N+](=O)[O-])[C@H]1[N+](=O)[O-],1.3844,236.571,377.9732034,0.625893576
FADTOW,CC(C)(C)C(=O)n1ncc2ccc([N+](=O)[O-])cc21,1.3265,193.604,309.3306483,0.625880433
FUBHAL,CC1COC(=O)CCCCCCC/C(=N\Nc2ccc([N+](=O)[O-])cc2[N+](=O)[O-])C1,1.3317,317,506.5038676,0.625858992
AFONEQ,COc1ccc(C2Oc3ccccc3C3C4(C(=O)Nc5ccccc54)N4CCCCC4C23[N+](=O)[O-])cc1,1.3502,382.709,611.4961746,0.625856736
JECVES,C[C@H]1CN1C[C@@H](O)Cn1ccnc1[N+](=O)[O-],1.3363,175.845,280.979274,0.625829078
TEXMIU,CCOC(=O)C1=C(C)NC(=O)N(Cn2cc(-c3ccccc3)nn2)C1c1ccc([N+](=O)[O-])cc1,1.3471,356.541,569.7212365,0.625816587
EYIFOK,CCOC(=O)C(C)(CC(C)(C)[N+](=O)[O-])C(O)c1ccccc1,1.2871,249.618,398.8712209,0.625811006
AZAFIQ,CC(c1ccccc1)N1C2C=CC(C2)C1COC(=O)c1cc([N+](=O)[O-])cc([N+](=O)[O-])c1,1.3486,326.042,521.0376128,0.625755208
JIDBON,O=[N+]([O-])C1(C2([N+](=O)[O-])CCCCCC2)CCCCCC1,1.3152,224.517,358.8037501,0.625737607
BUGQUQ,COc1ccc2c3c1OC1C4(OC)C=CC5(C(c6cccc([N+](=O)[O-])c6)C4)C(C2)N(C)CCC315,1.3562,352.565,563.4919809,0.625678824
VIYYIL,O=[N+]([O-])c1ccccc1OCCCN(CCCOc1ccccc1[N+](=O)[O-])CCCOc1ccccc1[N+](=O)[O-],1.3436,428.562,684.9558226,0.625678308
HOMFUN,O=[N+]([O-])c1ccc(/C=C\c2ccc(-n3c4ccccc4c4ccccc43)cc2)cc1,1.2822,316.134,505.273137,0.625669518
EGUZIQ,COc1ccccc1/C=N/NC(=O)c1ccccc1[N+](=O)[O-],1.3364,232.515,371.6476055,0.625632983
GOMFIY,COc1ccc2ccccc2c1/C=N/NC(=O)c1ccccc1[N+](=O)[O-],1.3355,271.571,434.0889919,0.625611349
LETPIJ,O=[N+]([O-])c1ccc(N/N=C2\CCC3CCCC3C3CCCC23)c([N+](=O)[O-])c1,1.351,286.172,457.4698013,0.62555386
APERIX,COc1ccc2c(c1)C(c1cc3ccccc3[nH]1)CC(c1ccc([N+](=O)[O-])cc1)N2,1.3218,313.669,501.4694045,0.625499776
POZGER,O=[N+]([O-])c1cccc(-n2nncc2-c2ccccc2)c1,1.3113,210.766,336.9580352,0.625496287
GETHET,CC1(C)CC2(CCOC(=O)c3ccc([N+](=O)[O-])cc3)OCC3CC3C23CC13,1.3188,292.337,467.3721087,0.625490898
ZAQTOC,CCOC(=O)COc1ccc([N+](=O)[O-])cc1,1.3568,172.271,275.4575601,0.625399426
GEWXUE,CC12CCC3c4ccc(O)c([N+](=O)[O-])c4CCC3C1CCC2=O,1.3363,244.924,391.6285301,0.625398767
APACIF,CCOC(=O)C1([N+](=O)[O-])Cc2ccccc2N(C)C1c1ccccc1,1.3131,269.012,430.1578822,0.625379683
YEJFIE,CC(=O)Oc1ccc(C(=O)OC2COC3C(O[N+](=O)[O-])COC23)cc1,1.4353,255.437,408.4970497,0.62530929
EGUQUS,O=C1[C@@H]([C@H](O)c2ccc([N+](=O)[O-])cc2)C[C@@H]2CCN12,1.35,201.593,322.3967034,0.625294855
BOFDAB,CCOc1cc(-c2cc(C)c(OCC)c([N+](=O)[O-])c2)c([N+](=O)[O-])cc1C,1.3292,281.317,449.9213253,0.625258204
EQUSUE,O=C(c1ccccc1)C1C(c2ccccc2)C([N+](=O)[O-])C(c2ccccc2)CC1(O)c1ccccc1,1.2836,386.001,617.3483719,0.625256367
YOKPOF,COc1ccc(C2C([N+](=O)[O-])C3c4ccccc4CCN3C23C(=O)c2cccc4cccc3c24)cc1,1.3242,373.353,597.1408339,0.625234415
FASPOE,CCOC(=O)C12CC=C(C)C(CCC1)C2C/C=N/Nc1ccc([N+](=O)[O-])cc1[N+](=O)[O-],1.3225,337.72,540.163025,0.625218655
RAMTEH,COc1cc(CN2CC3CC(C2)c2cccc(=O)n2C3)c([N+](=O)[O-])cc1OC,1.3512,295.946,473.3592051,0.625203855
UBUNUA,CC1(O)CCCC2CCC/C(=N/Nc3ccc([N+](=O)[O-])cc3[N+](=O)[O-])C21,1.3579,276.893,442.8906903,0.625194898
LEPSIJ,Cc1c(/N=C/c2ccccc2OCCOc2ccccc2[N+](=O)[O-])c(=O)n(-c2ccccc2)n1C,1.317,372.178,595.363141,0.625127715
OYEQEP,COc1ccc(C2=NCC(Cc3ccncc3)c3cc(OC)c(OC)c(OC)c32)cc1[N+](=O)[O-],1.3289,361.811,578.7849361,0.62512166
JEKHIR,CCOC(=O)[C@@H](O)/C(=C\c1ccc(N(C)C)cc1)[N+](=O)[O-],1.3168,231.857,370.913033,0.625098013
WEKBOE,COC(=O)C(C(C)C)C(c1ccccc1)N(C(=O)c1cc([N+](=O)[O-])cc([N+](=O)[O-])c1)C(C)c1ccccc1,1.3103,411.317,658.0053681,0.625096724
SIFFAP,CC(=O)C1(OC(=O)c2ccc([N+](=O)[O-])cc2)C(C)ON(c2ccccc2)C1c1ccccc1,1.3273,348.903,558.1805275,0.625071967
CIMKIS,O=[N+]([O-])c1ccc(/N=N/C23CCCCC2(/N=N/c2ccc([N+](=O)[O-])cc2)CCCC3)cc1,1.333,339.647,543.383579,0.625059374
JEGTEX,COC(=O)C1Cc2c([nH]c3ccccc23)C(c2ccccc2[N+](=O)[O-])N1,1.3471,270.546,432.8357487,0.625054656
YUGKUI,COc1ccc(C2C([N+](=O)[O-])CCC(O)C23C(=O)c2ccccc2C3=O)cc1,1.3486,293.302,469.2940284,0.624985579
NAXPEJ,CC1(C)Nc2ccccc2C(=O)N1/N=C/c1cccc([N+](=O)[O-])c1,1.3293,253.054,404.9028755,0.624974569
MEJLOF,CC(=O)C1(OC(=O)c2ccc([N+](=O)[O-])cc2)CC2C=CC1CC2,1.3408,243.907,390.2690804,0.624971365
TAKMUQ,COc1ccc(/C=C\c2cc(OC)c(OC)c(OC)c2)cc1[N+](=O)[O-],1.3214,271.053,433.7129762,0.624959397
FIZLAD,CC1C(=O)c2cc([N+](=O)[O-])ccc2N(Cc2ccccc2)C1c1ccccc1,1.2943,298.372,477.4688713,0.624903565
BUGQOK,COc1ccc2c3c1OC1C4(OC)C=CC5(CC4c4cccc([N+](=O)[O-])c4)C(C2)N(C)CCC315,1.3516,353.319,565.4097547,0.624890174
JULPUE,C=C(COc1ccc([N+](=O)[O-])cc1)n1nnc2c1CCC(C(=O)OCC)=C2C,1.3387,297.759,476.5133934,0.624870159
IGULAA,COC12OC(OC(=O)c3ccc([N+](=O)[O-])cc3)C34CCCCC(CC1CC3)C42,1.3616,295.044,472.1882287,0.624844039
PUWGET,COC(=O)/C(=C(/Nc1ccccc1)c1ccccc1)[N+](=O)[O-],1.3177,234.728,375.6675644,0.62482903
NUDQIP,CC1(C)CC(=O)C2C(c3ccccc3)C([N+](=O)[O-])C3(O)CCCC23C1,1.3078,272.269,435.7562178,0.624819541
XUQTUZ,CC(=O)C(C(=O)c1ccccc1)C(C[N+](=O)[O-])c1ccccc1,1.2805,252.088,403.46648,0.624805312
QARHEZ,CCCN1[C@H]2c3ccccc3N(C)C(=O)[C@]21[N+](=O)[O-],1.3281,203.947,326.4825641,0.624679607
RATMUV,COc1ccc(C(C(C)[N+](=O)[O-])C2(C)C(=O)N(C)C(=O)N(C)C2=O)cc1,1.3447,280.132,448.453428,0.624662412
YAZSUQ,CCOC(=O)C1NC(CC(=O)OC)(C(=O)OC)C(C#N)(C(=O)OCC)C1c1cccc([N+](=O)[O-])c1,1.3614,374.227,599.0967552,0.624652023
DUPJED,COc1ccc(C(C)Oc2ccc([N+](=O)[O-])cc2)cc1,1.305,217.07,347.5172715,0.624630825
TEWHUY,CC(C)Nc1c([N+](=O)[O-])c(NC(C)C)c([N+](=O)[O-])c(N(C)C)c1[N+](=O)[O-],1.3651,281.257,450.2877686,0.624616122
DEMPAM,CC1=C[C@@](C)([N+](=O)[O-])[C@H]([N+](=O)[O-])C(C)(C)C1=O,1.3514,185.801,297.4804684,0.624582182
YAJSAE,CC1=C2C=CCC2CC2/C(=N\Nc3ccc([N+](=O)[O-])cc3[N+](=O)[O-])CCCC12,1.3404,295.711,473.456963,0.624578416
ZONJOB,CN(C)c1ccc(OCCOc2ccc([N+](=O)[O-])cc2)cc1,1.3051,240.097,384.4238194,0.624563276
BUMNOM,O=C1C2C3CC(C4=C3C3CCC4C3)C2C(=O)N1c1ccc([N+](=O)[O-])cc1,1.3673,265.577,425.2324485,0.624545472
HEXTIN,Cc1c([N+](=O)[O-])c(C)c([N+](=O)[O-])c(C)c1[N+](=O)[O-],1.5343,222.371,591.2890383,0.624515692
ZONKES,COc1ccc(N(C)CCOc2ccc([N+](=O)[O-])cc2)cc1,1.3012,240.794,385.5760274,0.624504593
DIWXIS,C=CC(c1ccccc1)C1c2ccccc2CCN1C(=O)c1ccc([N+](=O)[O-])cc1,1.2819,322.11,515.788711,0.624499903
CEKKEI,CC(C)(C)OOC(=O)c1cccc([N+](=O)[O-])c1,1.3287,186.599,298.7997335,0.624495202
XAZFOU,CCOC(=O)C1OC2(Nc3ccc([N+](=O)[O-])cc3)CCCCC2(C)C1=O,1.3473,278.737,446.3613257,0.624464943
WEKHOM,Cn1cc(C(=O)c2c(-c3ccccc3OC(=O)c3ccc([N+](=O)[O-])cc3)c3ccccc3n2C)c2ccccc21,1.3133,417.803,669.1002496,0.624425115
DORJIE,CC(CC(C)(C#N)COC(=O)c1ccc([N+](=O)[O-])cc1)c1ccccc1,1.279,285.488,457.2068141,0.62441764
JEXBEW,C=C(OCc1ccccc1)C(C)C(C#N)(CC)COC(=O)c1ccc([N+](=O)[O-])cc1,1.2791,330.878,529.9074719,0.624407123
QUDQAH,CC(OC(=O)c1ccc([N+](=O)[O-])cc1)c1coc2ccccc12,1.3375,241.129,386.2268456,0.624319627
KATNID,Cc1ccc(/N=C/c2cccc([N+](=O)[O-])c2)cc1,1.2757,195.116,312.5290042,0.624313255
PILGID,CC(C)(C)Nc1c(-c2ccc([N+](=O)[O-])cc2)nc2cnccn12,1.3142,245.447,393.1487872,0.624310714
XOJCOO,CC1(C)CC2(OC(=O)c3ccc([N+](=O)[O-])cc3)CC3CC3C23CC13,1.3086,259.16,415.1462668,0.624261906
CICZET,CCOC(=O)C1(C(=O)OCC)N=C(c2ccccc2)CC1c1ccccc1[N+](=O)[O-],1.318,322.584,516.7613157,0.624241773
CACXIQ,COc1ccc(C2c3c(C)nn(-c4ccccc4)c3OCC2[N+](=O)[O-])cc1,1.3273,285.166,456.8277147,0.624230954
CARWIE,CN1C(=O)C2(c3ccccc31)N(C)CC(c1cccc([N+](=O)[O-])c1)C2(C#N)C(N)=O,1.3385,313.761,502.6385021,0.624227947
XOGHOR,COC(=O)c1c(NC(C)(C)C)oc(-c2ccc([N+](=O)[O-])cc2)c1C(=O)OC,1.3434,290.202,464.9371602,0.624174673
ROYZAI,CN1C(=O)C2(NC(c3ccccc3)C([N+](=O)[O-])C2c2ccccc2)c2ccccc21,1.3092,316.015,506.2956453,0.624170883
XEGDIX,CCOC1C/C(=C/c2ccc([N+](=O)[O-])cc2)CO1,1.3127,196.668,315.1181834,0.624108701
EWEFAP,COc1ccc(C(C)(C)C(C)(C)C(OC(=O)c2cc([N+](=O)[O-])cc([N+](=O)[O-])c2)c2ccccc2)cc1,1.3107,389.173,623.5829213,0.62409182
IQOQUB,COC1OC2COC(c3ccccc3)OC2C=C1C(C#N)(C#N)/C(=C/C=O)c1ccc([N+](=O)[O-])cc1,1.3288,379.898,608.7757976,0.624035978
COBCEC,O=[N+]([O-])c1ccc(C2OCCOCCOCCOC(c3ccc([N+](=O)[O-])cc3)OCCOCCOCCO2)cc1,1.3668,429.284,687.920893,0.624031054
SAQVEK,COC1CC(=O)CC2CC(C)N(C(=O)c3ccc([N+](=O)[O-])cc3)C(=O)C21,1.3544,275.54,441.550078,0.624028879
DAYTON,CCCOc1cc(/C=N/Nc2ccc([N+](=O)[O-])cc2)ccc1OC,1.3095,260.456,417.3851284,0.6240184
PUGSUG,CC(=O)Oc1cc(C(=O)OC2COC3C(O[N+](=O)[O-])COC23)cc(OC(C)=O)c1OC(C)=O,1.4319,339.468,544.006993,0.624014037
CILJIT,O=[N+]([O-])c1ccc2c(c1)[C@H]1C(=C(c3ccccc3)c3ccccc3)C=C[C@H]1O2,1.2883,295.286,473.2134383,0.624001721
MENTCN,COC(=O)C1C2C(OC(=O)c3ccc([N+](=O)[O-])cc3)C3(CCC2(C)C)CC13C,1.3251,302.728,485.1946964,0.623930975
WUNXIP,CCOC(=O)c1ccc(-c2ccc([N+](=O)[O-])cc2)c(-c2cc(C)ccc2O)c1,1.3053,299.347,479.7793393,0.623926409
IBOVEA,O=[N+]([O-])c1ccc(NC2CCCCC2Nc2ccc([N+](=O)[O-])cc2)cc1,1.3417,274.984,440.7990793,0.623830704
WACHUG,O=[N+]([O-])c1ccc2c(c1)[C@H](C=C(c1ccccc1)c1ccccc1)CC(c1ccccc1)(c1ccccc1)O2,1.2733,414.267,664.0823176,0.623818748
HETYIP,CC(c1ccccc1)N1C(=O)c2ccccc2NC1c1ccc([N+](=O)[O-])cc1,1.3109,294.85,472.683401,0.623779044
BULTUA,CCC1=C([N+](=O)[O-])C(c2ccccc2)NC(=O)N1,1.3343,191.824,307.522375,0.623772498
PAYBIC,O=[N+]([O-])c1ccc(/C=C/c2ccc(N(c3ccccc3)c3ccccc3)cc2)cc1,1.2687,320.164,513.2879362,0.623751266
LELZAG,N#C/C(=C\c1ccc2c(c1)OCCOCCOCCOCCO2)c1ccc([N+](=O)[O-])cc1,1.3337,341.832,548.0445061,0.623730365
ADANID,O=C1c2ccccc2C(CCCC2([N+](=O)[O-])c3ccccc3C(=O)c3ccccc32)([N+](=O)[O-])c2ccccc21,1.3415,400.033,641.3985943,0.623688614
VUWRIO,CC12CCCC(OC(=O)c3cc([N+](=O)[O-])cc([N+](=O)[O-])c3)C1C1C(=O)C3(O)CCC(CC12)C3(C)C,1.3529,372.202,596.7803079,0.623683448
YAWWIE,COC(=O)C(Cc1ccccc1)N/C(=C1\C(=O)N(c2ccccc2)N=C1C)c1ccc([N+](=O)[O-])cc1,1.3102,382.727,613.6623849,0.623676812
XOGZUO,COC(=O)C1(C(C[N+](=O)[O-])c2ccccc2)CCC(=O)N1Cc1ccccc1,1.3066,302.887,485.6903864,0.623621567
CITTAB,CC(C)C1(COC(=O)c2ccc([N+](=O)[O-])cc2)CC1(C(=O)OC(C)(C)C)c1ccccc1,1.2754,356.615,571.8477883,0.623618745
ELUMUV,N#CC1(/N=N/c2ccccc2[N+](=O)[O-])CCCc2cc3c(nc21)CCCC3,1.3117,285.111,457.2174466,0.623578567
MEZXOE,CC1(C)CC(=O)C2=C(C1)OC(N)=C(C#N)C2c1ccccc1[N+](=O)[O-],1.3281,264.408,424.0236708,0.623568961
NUDQOV,O=C1CCCCC23CCCC2(O)C([N+](=O)[O-])C(c2ccccc2)C13,1.3203,258.142,414.0025701,0.62352753
LOCCEN,Cc1ccc(C(=O)OCC2OC(n3cc([N+](=O)[O-])cn3)CC2OC(=O)c2ccc(C)cc2)cc1,1.343,358.614,575.1556726,0.623507716
NACBOJ,CC1(C)c2ccccc2N(CCC(=O)O)C12C=Cc1cc([N+](=O)[O-])ccc1O2,1.3382,294.107,471.7201243,0.623477746
FEJQAM,C=C(C)C1CCC(O)(CCCOC(=O)c2cc([N+](=O)[O-])cc([N+](=O)[O-])c2)CC1,1.3312,305,489.1963325,0.623471559
CIFREO,CC1=CC(c2ccc([N+](=O)[O-])cc2)C(C)(/C=C/c2ccc([N+](=O)[O-])cc2)CC1,1.2883,303.885,487.4401178,0.623430425
BIPCUY,O=[N+]([O-])C1c2ccccc2C(Cc2ccccc2)c2ccccc21,1.2813,254.592,408.4118609,0.62337073
JOXLAM,CCOC(=O)C12C(=O)OC(c3ccccc3)C1C(c1ccc([N+](=O)[O-])cc1)N1OC2c2ccccc21,1.3602,369.965,593.5072558,0.623353795
PEZZEC,C=C(C)C1CCC2(COC(=O)c3ccc([N+](=O)[O-])cc3)C(O)CCC(=O)C2C1,1.3168,304.332,488.2529558,0.623308055
MUSKUI,C/C(=N\Nc1ccc([N+](=O)[O-])cc1[N+](=O)[O-])C1=CC2C(C=CCC2C(=O)OC2C(=O)OCC2(C)C)C1,1.3601,379.106,608.2416814,0.623281849
ZIQYOQ,O=[N+]([O-])c1ccc(C2C3C(c4ccccc4)=NC4(CCCCC4)CN32)cc1,1.2878,290.265,465.7352789,0.623240311
MFHPYC,CCOC(=O)C1(C(=O)OCC)CC(c2ccccc2[N+](=O)[O-])C(O)N1C=O,1.3572,289.848,465.097654,0.623198155
BIGBAX,Cc1ccc(C2=NOC3(C(=O)c4ccccc4OC3C)C2c2ccc([N+](=O)[O-])cc2)cc1,1.3222,335.102,537.7134098,0.623198146
XAYRIY,CC1(C)OC2OC(C[N-][N+]#N)C(OC(=O)c3ccc([N+](=O)[O-])cc3)C2O1,1.3962,269.86,433.0522943,0.623157996
CAWWED,CN(c1ccccc1)c1nc(Nc2ccccc2)ccc1[N+](=O)[O-],1.3051,253.801,407.3277429,0.62308793
GECPEL,CCCCn1cnnc1Nc1cccc([N+](=O)[O-])c1,1.3182,204.961,328.9486781,0.623078959
RULFIN,CC(C)(C(CC(=O)c1ccccc1)c1ccccc1)[N+](=O)[O-],1.2533,245.28,393.7005195,0.623011624
FOKVEH,COc1ccc(-c2nc(N(C)C)c(-c3ccc([N+](=O)[O-])cc3)c(N(C)C)n2)cc1,1.3005,312.771,502.0491017,0.622988865
ZIZNOO,O=[N+]([O-])c1ccc(C2OCCC3OC(c4ccc([N+](=O)[O-])cc4)C4CCCCCC4=C32)cc1,1.3431,346.741,556.5984596,0.622964354
CAVROG,CC1=C(C)C1(C)C(C#N)(C#N)c1ccc([N+](=O)[O-])cc1,1.249,221.217,355.1221375,0.62293216
ELEJUB,C[C@@H](N/C=C1/C=C([N+](=O)[O-])C=CC1=O)[C@@H](O)c1ccccc1,1.3048,237.924,381.9469178,0.622924257
ZEJTUD,CN(C)c1ccc(/C=N/Nc2ccc([N+](=O)[O-])cc2)cc1,1.2861,228.517,366.8624812,0.622895531
JAXNAA,COc1cc(C(CC(C)=O)C[N+](=O)[O-])cc2c1OCO2,1.3531,214.878,344.9692925,0.622890224
VIKWAN,CC1(C)C(C)(C)C1(C(N)=O)[N+](=O)[O-],1.2924,148.922,239.1197729,0.622792495
BOYZUN,Cc1cccc(-n2c(-c3ccccc3)c(-c3ccc([N+](=O)[O-])cc3)c(=O)c3ccccc32)c1,1.2904,346.339,556.1252014,0.622771633
YALBOD,CC(=O)OC1C=C2C(COC2C[N+](=O)[O-])CC1OC(C)=O,1.3738,225.155,361.5419228,0.622763187
OROYEC,COc1ccc(/C(=C2/c3ccccc3-c3ccc([N+](=O)[O-])cc32)c2ccccc2)cc1,1.2839,326.298,524.0047208,0.622700497
LIFKES,CN1c2cccc3cccc(c23)NC1(C)c1ccccc1[N+](=O)[O-],1.3079,252.294,405.1920841,0.622652835
VEDYEL,CCOc1ccc(/C=N/N=C(\C)c2ccc([N+](=O)[O-])cc2)cc1,1.2803,251.261,403.5440771,0.622635827
LUHJUU,CCOC(=O)C1C(=O)N(Cc2cccc([N+](=O)[O-])c2)C12C=CC(=O)C=C2,1.3409,274.577,441.0030939,0.622619215
DIGQAO,CN(C)c1ccc(/C=C/C23OCCN2c2ccc([N+](=O)[O-])cc2C3(C)C)cc1,1.2897,303.941,488.2393083,0.622524641
GASZUX,Cc1ccc2c(c1)C1C(CC(=O)N1c1ccccc1)C(c1ccc([N+](=O)[O-])cc1)N2,1.3169,313.338,503.3353018,0.622523393
JIDBIH,O=[N+]([O-])C1(C2([N+](=O)[O-])CCCCC2)CCCCC1,1.3295,199.164,319.9322417,0.622519315
BAQCON,CCOC(=O)c1c(-c2ccc(C)cc2)c2n(Cc3ccccc3)c3ccccc3n2c1-c1ccc([N+](=O)[O-])cc1,1.2934,422.952,679.441611,0.622499407
EQEBIN,CC1=CC(C)(C)Nc2ccc([N+](=O)[O-])cc21,1.2932,174.333,280.0696252,0.622463075
WUSVOW,CCOC(=O)C1C(C(=O)c2ccccc2)C(c2ccc([N+](=O)[O-])cc2)ON1c1ccccc1,1.3157,350.502,563.1017817,0.62244875
GAVVAB,O=[N+]([O-])c1ccc(N/N=C/c2ccc(OCc3ccccc3)cc2)cc1,1.2911,277.902,446.4712895,0.62244092
VIZJAQ,CC1(C)c2cc3c(cc2C(=O)OC1O)C(C)(C)C(O[N+](=O)[O-])OC3=O,1.4059,258.127,414.7016493,0.622440254
HACQIN,COC(=O)/C=C\C1C(c2ccccc2)=CC(=O)N(c2ccccc2)C1c1ccc([N+](=O)[O-])cc1,1.2977,361.718,581.1560908,0.622411097
SIRXUM,Cc1ccc(/N=C(\c2ccccc2)c2ccc([N+](=O)[O-])cc2)cc1,1.261,259.069,416.2972464,0.622317352
VUGVUQ,CC1(C)CC(=O)C(=C/C=C/c2ccc([N+](=O)[O-])cc2)C(=O)C1,1.2857,240.421,386.3355587,0.622311342
ZIKNIQ,CC(C)(C)OC(=O)NC(Cc1cn(Cc2ccccc2)cn1)C(=O)OCc1ccc([N+](=O)[O-])cc1,1.3053,380.173,610.9105869,0.62230547
NERTAI,CCOC(=O)C(=O)/C(=C\NC(C)C)C(=O)c1ccc([N+](=O)[O-])cc1,1.3225,261.073,419.5340924,0.622292693
WOBJIG,Cc1cc([N+](=O)[O-])ccc1/N=C/C=C/c1ccc(N(C)C)cc1,1.2584,253.867,407.9551137,0.622291501
FADKIF,CN1CCC(c2ccccc2)=C/C1=N\c1ccc([N+](=O)[O-])cc1,1.2846,247.067,397.029057,0.622289466
AWAXON,Cc1ccc(/C=C(/C(=O)c2ccccc2)n2c(C)nc3cc([N+](=O)[O-])ccc32)cc1,1.2851,319.344,513.1857992,0.622277547
SEJNEA,CC(C)N(c1ccc([N+](=O)[O-])cc1[N+](=O)[O-])C(C)C,1.3075,211.113,339.2601431,0.622274689
EKAMIO,CCOC(=O)c1ccc(C/C=C\C(c2ccccc2)C(O)c2ccc([N+](=O)[O-])cc2)cc1,1.2741,349.694,561.9702826,0.622264221
GAFVAN,COC(=O)C1(C(C[N+](=O)[O-])c2ccccc2)CCC(c2ccccc2)=N1,1.2911,281.805,452.9219389,0.622193309
SABQOB,CO/N=C/C1=C(C(=O)OC)C(c2cccc([N+](=O)[O-])c2)C(C(=O)OC(C)C)=C(C)N1,1.3354,322.736,518.7399044,0.622153795
XICBOB,CCOc1ccc(-c2nn(-c3ccccc3)cc2C2C([N+](=O)[O-])C(c3ccccc3)ON2c2ccccc2)cc1,1.2988,423.353,680.466337,0.622151276
TEHLOH,C/C(=N/Nc1ccc([N+](=O)[O-])cc1[N+](=O)[O-])C1CC1C(C)OCc1ccccc1,1.3166,312.42,502.1896311,0.622115593
AZIGAR,COC(=O)C1(C)OCC(C)([N+](=O)[O-])CO1,1.3917,162.62,261.4031481,0.622104214
IPUMIR,O=C1CCCC2=C1C(/C=C/c1ccccc1)C(c1ccc([N+](=O)[O-])cc1)O2,1.2975,287.516,462.1925366,0.622069759
ECUPIE,O=C1CCCCN1/C=C(\CC(O)c1ccc([N+](=O)[O-])cc1)c1ccccc1,1.3017,290.574,467.1137003,0.622062679
TIXWIH,CCOC(=O)/C(C#N)=C(/Nc1ccc([N+](=O)[O-])cc1)NC(C)c1ccccc1,1.2931,303.671,488.1869341,0.62203836
VIRHAF,C/C(=C\c1c(-c2ccccc2)n(C)c2ccccc12)[N+](=O)[O-],1.2696,237.661,382.0860332,0.622009127
MALNIZ,CC1(C(C[N+](=O)[O-])c2ccc3ccccc3c2)C=CC(=O)O1,1.3079,234.627,377.2187777,0.621991836
PUTTOO,CCOC(=O)C1(C#N)C=CC(c2ccccc2)CC1C/C=N/Nc1ccc([N+](=O)[O-])cc1[N+](=O)[O-],1.3271,371.354,597.0762734,0.621954039
YUGBEH,C[C@@H](/N=C/c1ccc([N+](=O)[O-])cc1)[C@@H](O)c1ccccc1,1.2799,229.263,368.6250356,0.621940937
CEHFUS,Cc1ccc(N(OC(=O)Cc2ccccc2[N+](=O)[O-])C(=O)c2ccccc2)cc1,1.3124,307.006,493.626853,0.621939423
ARUVEO,CN(CCCCC(=O)O)c1ccc(/N=N/c2ccc([N+](=O)[O-])cc2)cc1,1.3052,281.797,453.1260532,0.621895382
TAMWAF,O=[N+]([O-])c1ccc(N2N=C(c3ccccc3)NN=C2c2ccccc2)cc1,1.3144,280.583,451.1851397,0.621879968
TEVGUZ,CC1(C)CC(=O)C(c2c(-c3ccc([N+](=O)[O-])cc3)[nH]c3ccc4ccccc4c23)=C(O)C1,1.3036,337.581,542.8643018,0.621851536
FOQLAB,CC(C)(C(=O)OC(=O)C(C)(C)c1ccccc1[N+](=O)[O-])c1ccccc1[N+](=O)[O-],1.3379,308.826,496.6372531,0.621834142
PEPPOR,O=C1CC2CCC([N+](=O)[O-])C(c3ccccc3)C2C2c3[nH]c4ccccc4c3CCN12,1.3197,324.844,522.4398241,0.621782615
MOQNIQ,CC1=N[C@@](c2ccccc2)([C@H](C[N+](=O)[O-])c2ccccc2)OC1=O,1.3025,256.929,413.2197606,0.621773266
TUPNEY,COc1ccc(CN2CC3C=CC(c4ccccc4)C(c4ccc([N+](=O)[O-])cc4)C3C2=O)cc1,1.2884,363.983,585.3979204,0.621770231
ZIYBAM,Cc1ccc(C(=O)O[C@H](C)Cn2c([N+](=O)[O-])cnc2C)cc1,1.3114,238.641,383.8373015,0.621724358
PEPQOQ,CC(CC1(c2ccccc2)CCCC1C)OC(=O)c1cc([N+](=O)[O-])cc([N+](=O)[O-])c1,1.3131,324.061,521.23875,0.621713178
NIXPIW,COC(=O)C1(C)CCCC2(C)c3cc(N4CCCC4)c([N+](=O)[O-])c([N+](=O)[O-])c3CCC12,1.3435,331.337,532.9810781,0.621667473
UYURUD,O=[N+]([O-])C12CN(Cc3ccccc3)CC1C=CC1CN(Cc3ccccc3)CC12[N+](=O)[O-],1.3234,338.644,544.8276335,0.621561718
KUVZAF,CN1CCN(CCNc2ccc([N+](=O)[O-])c3nonc23)CC1,1.3557,233.083,374.9965259,0.621560425
DOHFEL,C[C@]12C[C@@H](c3ccco3)[C@H]([N+](=O)[O-])[C@H](O1)c1ccccc1N2,1.3517,229.157,368.6944872,0.62153628
QUBMAC,O=[N+]([O-])c1ccccc1-c1nc(-c2ccccc2)c(-c2ccccc2)[nH]1,1.2924,272.417,438.2992403,0.621531992
IPUZEZ,COc1ccc(C2C3=C(CCCC3=O)OC2[N+](=O)[O-])cc1,1.3441,221.989,357.1692541,0.621523262
KASBEL,N#CN(CCCCN(C#N)[N+](=O)[O-])[N+](=O)[O-],1.5269,222.369,594.1546737,0.621498034
KUFWUF,CCOc1cc(N)c([N+](=O)[O-])cc1C(=O)N(Cc1ccccc1)Cc1ccccc1,1.2923,323.572,520.6402558,0.621488631