name,smiles,Density,Vint,Veff,pc
MPNPZH01,C/C(NCc1ccccc1)=C(C(/C)=N/Cc1ccccc1)\c1c([N+](=O)[O-])cc([N+](=O)[O-])cc1[N+](=O)[O-],1.395,382.189,582.2990125,0.656344922
KAZFAT,COc1nc(N2CCOCC2)nc(C(CCC(=O)O)([N+](=O)[O-])[N+](=O)[O-])n1,1.5173,267.275,407.2458828,0.656298839
XICJOJ,CNC1=C([N+](=O)[O-])C(c2ccccc2OC(C)=O)c2ccccc2O1,1.4143,262.08,399.3352849,0.656290616
XATZUO,O=C(N/N=C/c1ccc([N+](=O)[O-])cc1)c1ccccc1,1.3821,212.175,323.3010031,0.656276962
MNABTZ10,C[n+]1nc([N-]c2ccccc2[N+](=O)[O-])c2ccccc2n1,1.406,217.871,331.9915865,0.656254583
AKUPIG,CC(C)([C@H]1OC(=N)c2ccccc21)[N+](=O)[O-],1.4038,170.849,260.3453527,0.656239869
SENHID,COC(=O)c1cc(Nc2ccccc2)ncc1[N+](=O)[O-],1.4258,208.711,318.0447971,0.656231455
PADKOY,CN(C)C(=O)CN(C)c1ccc([N+](=O)[O-])c2nonc12,1.4384,211.433,322.2108381,0.656194563
BUZVOH,Cc1ccc(N/N=C2/C=CC(=O)C3=CC=CC=C2C3)c([N+](=O)[O-])c1,1.3814,253.293,386.0123739,0.656178447
BORHAS,COCCNC(=O)N/N=C/c1ccc([N+](=O)[O-])o1,1.4545,191.842,292.3669479,0.656168563
JEMWII,COc1ccccc1C(=C([N+](=O)[O-])[N+](=O)[O-])c1ccccc1OC,1.4173,253.766,386.7490722,0.656151542
ZUNSEJ,NC(=O)N/N=C(\c1ccccc1)c1ccc([N+](=O)[O-])cc1,1.4015,220.853,336.611784,0.656105967
DETDOV,O=[N+]([O-])c1cc2c3c(ccc2o1)CCCC3,1.4133,167.333,255.0576007,0.656059649
RIHHUL,O=C(Nc1ccccc1/N=C\c1ccccc1[N+](=O)[O-])c1ccc([N+](=O)[O-])cc1,1.4392,295.292,450.1070834,0.656048329
TOSROL,COc1ccc(-c2noc(C)c2[N+](=O)[O-])cc1,1.4182,179.795,274.0704926,0.656017356
APUHAV,COC(=O)C1(c2ccc([N+](=O)[O-])cc2[N+](=O)[O-])CC2COC(c3ccccc3)N2C1=O,1.4659,317.384,483.8289502,0.655983897
JEKQUO,O=C1c2ccccc2C(=O)N1O[C@H]1Cc2ccccc2[C@@H]1O[N+](=O)[O-],1.453,254.953,388.6575855,0.655983595
OCAYEW,O=C1C2CC3CC1C(c1cccc([N+](=O)[O-])c1)N(C3)C2c1cccc([N+](=O)[O-])c1,1.434,298.595,455.2550774,0.655885052
IQOMIL,N#CC(C#N)=C1C[C@H](c2ccco2)C([N+](=O)[O-])[C@@H](c2ccco2)C1,1.3841,254.24,387.6340294,0.65587637
POVKOA,Nc1ccc(/N=C/c2cccc([N+](=O)[O-])c2)cc1,1.3688,191.83,292.4795158,0.655874992
RENMAB,N#CC12NC(=O)OC1(Cc1ccccc1)OC1=C(C(=O)CCC1)C2c1ccc([N+](=O)[O-])cc1,1.4208,341.21,520.2551633,0.655851252
KUTKOA,CN1CN(Cc2ccccc2)CN/C1=N\[N+](=O)[O-],1.4,193.799,295.4949625,0.65584536
RAKMUM,CNc1ccc([N+](=O)[O-])c2cccc(N(C)C)c12,1.3646,195.628,298.2854597,0.655841556
YAYPIY,CC(=O)Nn1c(C)c([N+](=O)[O-])c2ccc(O)cc21,1.4167,191.456,291.9558634,0.655770354
NBCBRE10,N#C[C@H]1[C@H]2C=C[C@@H]3[C@H]2C[C@H]1[C@H]3OC(=O)c1cc([N+](=O)[O-])cc([N+](=O)[O-])c1,1.4558,265.605,405.0326766,0.655761906
JOFGUH,COc1cccc(/C(C)=N/Nc2ccc([N+](=O)[O-])cc2)c1,1.3659,227.301,346.6255901,0.655753662
JILKEU,N#C[C@@]1([N+](=O)[O-])[C@H]2[C@H]3C=C[C@H](C3)[C@H]21,1.395,137.431,209.579121,0.655747573
CUKRUW,O=[N+]([O-])c1ccc(-c2ncc3oc(C4CCC4)nn23)cc1,1.4305,216.245,329.7877773,0.655709565
JOYRAQ,C=CCn1c(-c2ccc([N+](=O)[O-])cc2)nc2ncccc2c1=O,1.3982,239.926,365.9103242,0.655696175
CAVDAF,CN1OC(=O)N(c2ccccc2)[C@H]1c1ccccc1[N+](=O)[O-],1.4163,229.938,350.681254,0.655689454
ADIDUN,CCc1nn(C)c(C(=O)n2cnc3ccccc32)c1[N+](=O)[O-],1.419,229.499,350.0271419,0.655660583
QUYQEH,CC(=O)N1N=C(c2ccccc2[N+](=O)[O-])C[C@@H]1c1ccccc1,1.374,244.941,373.5882775,0.655644234
JELTEC,O=[N+]([O-])c1ccc(-n2cc(Cc3ccccc3)nn2)cc1,1.3829,220.507,336.3420783,0.65560337
HUPVIA,O=C(/C=C/c1c[nH]c2ccccc12)c1cccc([N+](=O)[O-])c1,1.3728,231.634,353.3187689,0.655594948
ZUMLIE,CN1C(=O)C(C(CC(=O)c2ccccc2)c2cccc([N+](=O)[O-])c2)C(=O)N(C)C1=O,1.4066,316.655,483.0064952,0.655591598
ODOWOW,O=C(OCC1CC12C1C=CC2c2ccccc21)c1cc([N+](=O)[O-])cc([N+](=O)[O-])c1,1.4215,300.278,458.0532174,0.655552649
IPUQEP,COc1cc(C)ccc1NC(=O)c1ccc([N+](=O)[O-])c(OC)c1OC,1.4053,268.111,408.9952588,0.655535717
LOJKAX,Cc1c(C#N)cccc1[N+](=O)[O-],1.368,128.941,196.7021091,0.655514069
HUMSAJ,CC/C(=N\Nc1ccc([N+](=O)[O-])cc1[N+](=O)[O-])c1ccccc1,1.4046,243.416,371.3491094,0.655491002
TIFWOX,Nc1ccccc1C(=O)/C=C/c1ccc([N+](=O)[O-])cc1,1.3667,213.513,325.7346938,0.655481298
WAJNAA,O=[N+]([O-])c1ccc(OCc2nc3ccccc3n2CCc2nnn[nH]2)cc1,1.4271,278.479,424.8646291,0.655453481
JAWBUE,CC1(O)CC(c2cccc([N+](=O)[O-])c2)c2c(c3ccccc3oc2=O)O1,1.44,266.87,407.181354,0.655408204
VETQET,O=[N+]([O-])C1=Cc2ccccc2OC1c1ccc2ccccc2c1,1.3779,239.402,365.2736015,0.655404604
ZAMVEO,O=C1C=C(Nc2cccc([N+](=O)[O-])c2)CCC1,1.3873,182.073,277.8058142,0.65539665
MAZZOD,O=C(O)CCC(=O)Nc1cccc([N+](=O)[O-])c1,1.4395,179.98,274.6236387,0.655369657
DIWFEU,Nc1ccccc1-c1ccc([N+](=O)[O-])cc1,1.3613,171.142,261.1413078,0.655361656
FOCCEI,CC(=O)Oc1cccc(C(=O)Nc2ccc([N+](=O)[O-])cc2)c1C,1.4002,244.114,372.5027174,0.655334817
SIVKIR,O=[N+]([O-])c1ccc(-c2c3ccccc3c(-c3ccc([N+](=O)[O-])cc3)c3c4ccccc4c4ccccc4c23)cc1,1.3808,409.933,625.5419432,0.655324562
WEHCIX,N#C/C=C(/Oc1ccc([N+](=O)[O-])cc1)c1ccccc1,1.3584,213.146,325.260908,0.655307769
YAHREG,O=[N+]([O-])c1ccc(Oc2ccc3ccccc3c2)nc1,1.3991,206.939,315.7990262,0.655287011
IHEDEE,CC1(C)CC(=O)C(=C2Nc3ccc([N+](=O)[O-])cc3N2)C(=O)C1,1.4201,230.723,352.0998864,0.655277121
AKUREE,O=C(NC1CC2(C1)CC(NC(=O)c1ccc([N+](=O)[O-])cc1)C2)c1ccc([N+](=O)[O-])cc1,1.419,325.235,496.3523855,0.6552502
XENCAV,C/C=N/Nc1ccc([N+](=O)[O-])cc1[N+](=O)[O-],1.4508,168.023,256.4550549,0.655175232
FEGFIG,CO[C@@]12O[C@@](C)(N=C1c1ccc([N+](=O)[O-])cc1)[C@@H]1C(=O)N(C)C(=O)[C@@H]12,1.4579,257.532,393.0767262,0.6551698
BITSAA,N#C/C(=C\c1ccc([N+](=O)[O-])cc1)c1nc2ccccc2n1-c1ccccc1,1.363,292.228,446.049192,0.655147471
PAVDOH,Cc1ccc(C(=O)N/N=C/c2cccc([N+](=O)[O-])c2)cc1,1.373,224.317,342.3952694,0.655140477
KILTAA,O=[N+]([O-])C1(C2([N+](=O)[O-])c3ccccc3-c3ccccc32)c2ccccc2-c2ccccc21,1.4038,325.572,496.9627712,0.65512352
SUJBAC,O=C1c2ccccc2C(c2ccccc2)N1Cc1ccccc1[N+](=O)[O-],1.3637,274.515,419.0358458,0.655111019
GECPIP,Cc1ccc(-n2cnnc2Nc2cccc([N+](=O)[O-])c2)cc1C,1.3781,244.019,372.4903473,0.65510154
MALFEN,COC(=O)C1=C(C)NC(C)=C(C(=O)OC)C1c1cc(OC)c(OC)cc1[N+](=O)[O-],1.4236,310.355,473.7511412,0.655101324
FUFXOT,COc1ccc(/N=C(\c2ccccc2)N(c2ccc(OC)cc2)c2c([N+](=O)[O-])cc([N+](=O)[O-])cc2[N+](=O)[O-])cc1,1.4225,415.334,634.0503651,0.655048909
POHTOY,CCOC(=O)C(=CNc1ccc([N+](=O)[O-])cc1)C(=O)OCC,1.4042,238.64,364.3585305,0.654959278
TAKNAX,COc1ccc(/C=C/c2cc(OC)c(OC)c(OC)c2)cc1[N+](=O)[O-],1.3848,271.054,413.8563884,0.654947
YAFSOP,COC(=O)c1c(C)nc(C)c(C(=O)OC)c1-c1ccccc1[N+](=O)[O-],1.3994,267.432,408.3277466,0.654944471
IROHUU,N#C/C(=C\c1ccc2c(c1)c1ccccc1n2-c1ccccc1)c1ccc([N+](=O)[O-])cc1,1.3484,334.833,511.2491299,0.654931188
LEZNUZ,CC1=NOC(=O)/C1=N\Nc1ccc([N+](=O)[O-])cc1,1.4522,185.766,283.651972,0.654908192
FUXTOJ,Cc1c(-c2ccc([N+](=O)[O-])cc2)n2c(=O)c3ccccc3c(=O)n2c2ccccc12,1.411,306.069,467.3526922,0.654899405
FOBZUS,O=[N+]([O-])c1ccccc1-c1nc2ccccc2[nH]1,1.4018,185.466,283.2064294,0.6548792
ADAXIN,Cc1cccc(C(=O)Nc2ccccc2NC(=O)c2cccc(C)c2[N+](=O)[O-])c1[N+](=O)[O-],1.4089,335.087,511.6786476,0.654877825
WUTZUI,Cn1c(=O)c2c(c3ccccc31)OC(N)=C(C#N)C2c1cc([N+](=O)[O-])ccc1O,1.4335,295.924,451.8968359,0.654848577
PUQQOI,CC1(C)CC(=O)C(=NNc2cccc([N+](=O)[O-])c2)C(=O)C1,1.4015,224.314,342.5542981,0.654827574
ICEPEO,CC1(CC(=O)c2ccccc2[N+](=O)[O-])C(=O)C(=O)c2ccccc2C1=O,1.4112,270.521,413.1193036,0.654825368
GEQTUR,O=C(O)c1ccc([N+](=O)[O-])cc1C(=O)c1ccccc1,1.4167,208.041,317.7118861,0.654810251
NOGCIX,C/C(=C\C#Cc1nc(C)n(C)c1[N+](=O)[O-])c1ccccc1,1.3278,230.208,351.575492,0.654789669
BUKTUW,O=[N+]([O-])c1ccc([N+](=O)[O-])c(OC2CCCCO2)c1,1.4723,197.963,302.3543242,0.654738445
XUMRON,C[C@H](/C=N/Nc1ccc([N+](=O)[O-])cc1[N+](=O)[O-])c1ccccc1,1.4045,243.119,371.3755494,0.654644605
TOYYAH,Cc1ccnc(Cc2ccc([N+](=O)[O-])cc2[N+](=O)[O-])c1,1.4126,210.151,321.0167575,0.654641837
GESFAO,O=C1N[C@H](c2ccccc2[N+](=O)[O-])Nc2ccccc21,1.4198,206.024,314.7163801,0.654633864
HAMYIG,CN(C)/C=C/C(NC(=O)c1cccc([N+](=O)[O-])c1)=C1\N=C(c2ccccc2)OC1=O,1.3937,316.77,483.9030576,0.654614587
ZUHVIH,O=[N+]([O-])C(C1=CCCCC1)C1c2ccccc2OC(c2ccc3c(c2)OCO3)C1[N+](=O)[O-],1.4354,331.808,506.8829381,0.654604791
YULXAF,Cn1c2ccccc2c(=O)c2c(-c3ccc([N+](=O)[O-])cc3)c(-c3ccccc3)oc21,1.3895,309.864,473.3947019,0.654557389
WAJWUA,Cc1c(/N=C/c2ccc([N+](=O)[O-])cc2)c(=O)n(-c2ccccc2)n1C,1.3792,264.896,404.7017056,0.65454629
AMNBOZ,CC(=O)N1OCCc2ccc([N+](=O)[O-])cc2[C@H]1C,1.4013,193.989,296.3736172,0.654542067
UGERUW,O=C(/C=C/c1ccc(-n2c3ccccc3c3ccccc32)cc1)c1ccc([N+](=O)[O-])cc1,1.3517,336.226,513.6861519,0.654535846
QQQCOY10,Cc1ccc(N/N=C/C(=O)Nc2ccccc2)c([N+](=O)[O-])c1,1.3782,235.102,359.1901058,0.654533619
LAHBIJ,COc1ccccc1N1CCN(C(=O)c2cc([N+](=O)[O-])cc([N+](=O)[O-])c2)CC1,1.4351,292.429,446.7948202,0.654504007
NOQVUL,Cc1ccc(/C=N/c2cccc([N+](=O)[O-])c2)o1,1.3837,180.698,276.1095739,0.65444308
FIDCIF,O=[N+]([O-])c1cccnc1OCc1ccccc1,1.3927,179.524,274.32528,0.654420183
BUDKER,COc1cccc([N+](=O)[O-])c1-c1c(OC)cccc1[N+](=O)[O-],1.4403,229.422,350.5782626,0.654410226
TAZVAS,O=[N+]([O-])c1ccc(/C=N/c2cccc3ccccc23)cc1,1.3512,222.042,339.3093922,0.65439391
DUBZEI,O=C1C2C3CCC(O3)C2C(=O)N1c1ccc([N+](=O)[O-])cc1,1.4659,213.55,326.3365281,0.654385831
PANJUK,O=C(CCn1cncn1)c1cccc([N+](=O)[O-])c1,1.4107,189.549,289.6665675,0.654369614
ZOWDOE,Cc1ccc([N+](=O)[O-])cc1N(C)c1nnn[nH]1,1.4253,178.467,272.7314117,0.654369069
LIGHER,O=[N+]([O-])c1ccc(OCc2ccc(-c3ccc(COc4ccc([N+](=O)[O-])cc4)cc3)cc2)cc1,1.3877,357.175,545.8334119,0.654366318
PUNDOT,Cc1cc(C)c([N+](=O)[O-])c(C)c1[N+](=O)[O-],1.4095,161.939,247.4866072,0.654334398
PIMWEQ,O=C1CC(c2ccccc2OCc2cn(-c3ccc([N+](=O)[O-])cc3)nn2)Oc2ccccc21,1.4152,339.462,518.7940159,0.654329059
DIDWIY,O=[N+]([O-])c1ccc(O)c(/C=N/CCO)c1,1.4139,161.431,246.7164387,0.654317973
LAGZUR,CC(C)C(=O)NC1=C([N+](=O)[O-])C(=O)c2ccccc2C1=O,1.4206,220.333,336.742726,0.654306635
LUDGAS,CN(C)c1ccc(C(=O)c2ccc([N+](=O)[O-])cc2)cc1,1.3562,216.369,330.7246679,0.654226978
DEMPIU,CC1=C[C@@](C)([N+](=O)[O-])C(=O)[C@@](C)(O)[C@@]1(C)[N+](=O)[O-],1.4533,192.918,294.8986859,0.654183994
LALQIZ,CC(=O)C(=NNc1c(C)cccc1[N+](=O)[O-])C(C)=O,1.3889,205.767,314.5570309,0.654148469
DAWYEI,C#CC(OC1Cc2ccccc2CC1OC(=O)c1cc([N+](=O)[O-])cc([N+](=O)[O-])c1)c1ccccc1,1.3959,367.4,561.6549758,0.654138245
RIQRIV,O=[N+]([O-])c1ccc(Nc2c(O)ccc3ccccc23)cc1,1.3895,218.954,334.7310587,0.654119163
VUXLUV,COC[C@@H](O)Cn1ccnc1[N+](=O)[O-],1.4378,151.908,232.233323,0.654118014
ASUBOI,COc1ccc2c(c1[N+](=O)[O-])Oc1c(ccc(O)c1[N+](=O)[O-])C21OC(=O)c2ccccc21,1.4994,315.891,482.934332,0.654107565
RIJMOM,O=[N+]([O-])c1ccc2c(ccn2[C@H]2C[C@H](O)[C@@H](CO)O2)c1,1.447,208.752,319.1407775,0.654106322
UWUHOL,COc1ccc(C(=O)c2nn(-c3ccccc3[N+](=O)[O-])nc2-c2ccccc2)cc1,1.3894,312.797,478.2168905,0.654090239
SANQAA,Cn1c(/C=C/[N+](=O)[O-])nc2ccccc21,1.3807,159.737,244.236382,0.654026229
XAKZOB,Cc1ccc(C2=Cc3ccccc3/C(=C/[N+](=O)[O-])O2)cc1,1.36,222.866,340.7765409,0.653994549
DAVXUT,CC1=C([N+](=O)[O-])[C@](C)([N+](=O)[O-])[C@](C)(O)C(=O)[C@@]1(C)[N+](=O)[O-],1.4955,220.085,336.528573,0.653986073
DIHNOY,C/C(=N\Oc1ccc([N+](=O)[O-])cc1)c1ccccc1,1.3635,203.968,311.8844194,0.653985859
WAKDIW,CC(/C=C/c1ccccc1)=N\Nc1ccc([N+](=O)[O-])cc1[N+](=O)[O-],1.3908,254.634,389.3616329,0.653978149
NUQCEJ,COc1ccc2ccccc2c1[N+](=O)[O-],1.3864,159.046,243.2187815,0.65392154
YEYFAK,COc1ccccc1/C=C/C(=O)c1ccc([N+](=O)[O-])cc1,1.3605,225.946,345.527417,0.653916271
MACINA10,CN(C)c1ccc(/C=C/C(=O)O)cc1[N+](=O)[O-],1.3887,184.581,282.3028452,0.653840381
SIJYOB,O=C1OCCN(c2cccc([N+](=O)[O-])c2)CCOC(=O)c2ccccc21,1.4251,271.304,414.9470554,0.653827992
VOQJER,CCc1ccc([N+](=O)[O-])cc1N,1.3596,132.615,202.8411756,0.653787376
XICLAX,NC(=O)[C@@H]1CCCN1c1ccc([N+](=O)[O-])cc1,1.4069,181.403,277.4894484,0.653729362
XIKXUM,Cn1c(/C=C(/c2ccccc2)[N+](=O)[O-])nc2ccccc21,1.3577,223.161,341.3675699,0.653726422
AXAFIP,O=C1Nc2cccc([N+](=O)[O-])c2C(=O)N2CCC[C@H]12,1.4619,193.862,296.5600053,0.653702443
SAGJAN,COc1ccc(-c2ccccc2)cc1[N+](=O)[O-],1.3692,181.605,277.8265462,0.653663239
OPAGOD,O=C1CC2CCCC3(C1)C2CCCN3C(=O)c1cc([N+](=O)[O-])cc([N+](=O)[O-])c1,1.4371,292.411,447.3521151,0.653648413
IGACAV,COc1ccc(/N=C/c2cccc([N+](=O)[O-])c2)cc1OC,1.378,225.348,344.7677429,0.653622633
TOCBAR,CNC1=C([N+](=O)[O-])C(c2ccc([N+](=O)[O-])cc2)C(C(=O)OC)=C(C)O1,1.4494,261.413,399.9589584,0.653599562
ETOGOJ,CC(=O)c1ccc(N/N=N/c2ccc([N+](=O)[O-])cc2)cc1,1.3862,222.437,340.3270924,0.653597686
ESANIX,Cc1ccc(/N=C/c2cc([N+](=O)[O-])ccc2O)cc1C,1.3542,216.461,331.2131106,0.653539951
EQETUQ,O=C1C([N+](=O)[O-])C(c2ccccc2)CC2(c3ccccc3)NCCN12,1.3755,265.976,407.022225,0.653468002
VINZEA,Cc1cc(C)c(-c2c3ccccc3c(/C=C/c3ccccc3[N+](=O)[O-])c3ccccc23)c(C)c1,1.3104,366.995,561.6291753,0.653447179
AFOVUP,CN(C)c1ccc([N+](=O)[O-])cc1,1.3497,133.517,204.3290081,0.653441238
TECQUN,COC(=O)/C(NC(=O)c1ccccc1)=C(\C)[N+](=O)[O-],1.4246,201.14,307.8213648,0.653430928
XOSQON,COC(=O)CN(CC(=O)OC)c1ccc(/N=N/c2ccc([N+](=O)[O-])cc2C#N)c(NC(C)=O)c1,1.4085,360.646,551.9291442,0.653428078
UTOHUH,O=Cc1cc([N+](=O)[O-])ccc1N1CCOCC1,1.4201,180.383,276.0608134,0.653417621
SAWNEL,O=C(OCc1ccccc1)c1cc([N+](=O)[O-])on1,1.4473,185.949,284.5994192,0.653370975
BADMOJ,O=C(Oc1ccccc1[N+](=O)[O-])c1ccccc1-c1ccccc1,1.3669,253.273,387.6447808,0.653363627
BOHLIT,O=[N+]([O-])c1ccccc1[N-][N+](=O)c1ccccc1[N+](=O)[N-]c1ccccc1[N+](=O)[O-],1.4494,305.476,467.5456675,0.653360776
LAQKIZ,C[C@@H]([C@@H](O)c1ccc([N+](=O)[O-])cc1)[N+](=O)[O-],1.4365,170.729,261.3251151,0.65332029
LUQHOX,CC(C)(C)c1nc2ccc([N+](=O)[O-])cc2c(=O)o1,1.4074,191.232,292.7107868,0.653313812
MAMFOW,Cc1ccc(/C=C/c2ccc([N+](=O)[O-])cc2)cc1,1.3114,197.783,302.7608208,0.653264843
QEFKER,O=[N+]([O-])c1ccc(C2CC(c3ccccc3)=Nc3ccccc3N2)cc1,1.3605,273.595,418.8203798,0.653251401
ZAMWIT,Cc1ccc(-n2cc([N+](=O)[O-])nc2C)cc1,1.3714,171.716,262.8639063,0.653250583
JAPNEU,COC(=O)C/C(=C\c1ccc([N+](=O)[O-])cc1)C(=O)OC,1.3973,216.657,331.6616053,0.653247155
GAZBEQ,COC(=O)c1cnc(-c2ccccc2[N+](=O)[O-])cc1C(=O)OC,1.421,241.279,369.3631749,0.653229711
DUTRIT01,O=C1CC(c2ccc([N+](=O)[O-])cc2)Oc2ccccc21,1.4052,207.704,317.9730019,0.65321269
GOLVAE,CC(C)(c1ccc2ncccc2c1C#N)[N+](=O)[O-],1.3581,192.554,294.7838607,0.65320401
POBGUJ,CC12CC3CC(C#N)(C1)/C(=N/Nc1ccc([N+](=O)[O-])cc1[N+](=O)[O-])C3O2,1.4525,266.678,408.2701641,0.653190028
WERPUE,O=[N+]([O-])c1cnc(/C=C/c2ccccc2)n1CCO,1.3732,204.646,313.3223893,0.653148345
BEHDUN,O=C(OC1C2CC3C1C1C(=O)C4CC1C3C42)c1ccc([N+](=O)[O-])cc1,1.4528,253.169,387.6150764,0.653145389
VEKNUV,N=C1OC2(CCCC2)Nc2ccc([N+](=O)[O-])cc21,1.4205,188.668,288.8610384,0.653144505
YOHLIS,CC(=O)/C(=C/c1ccccc1)COc1ccc([N+](=O)[O-])cc1[N+](=O)[O-],1.3981,265.376,406.3133253,0.653131422
EJUCEU,CO/N=C(\Cn1cncn1)c1ccc(Oc2ccc([N+](=O)[O-])cc2)nc1,1.4166,271.106,415.1003589,0.653109529
WIGVEP,O=[N+]([O-])c1ccc(/C=C/C=N/c2cccc3ccccc23)cc1,1.3304,246.277,377.0869206,0.653104063
KUYVEF,CC12CC3CCC(C3O1)C2OC(=O)c1cc([N+](=O)[O-])cc([N+](=O)[O-])c1,1.4681,257.147,393.7387125,0.653090468
GIVJAX,O=[N+]([O-])c1ccc(Cc2cnccn2)cc1,1.3787,169.164,259.0442973,0.653031168
LORJAD,CCOC(=O)/C(=C/N/N=C1C(=N\O)\C(=O)N(C)C(=O)N\1C)[N+](=O)[O-],1.4914,248.738,380.9029329,0.653022013
VAJFUH,O=[N+]([O-])CC1OC(CO)C(O)C1O,1.5024,139.342,213.387362,0.653000246
RAFKIU,Cc1[nH]n(-c2ccccc2)c(=O)c1C(c1ccc([N+](=O)[O-])cc1)c1c(O)ccc2ccccc12,1.3788,354.813,543.3601785,0.652997798
GOCHAK,COc1cc2c(cc1-c1cc(OC)c3cc4c(cc3c1[N+](=O)[O-])OCO4)OCO2,1.4749,291.937,447.0748254,0.6529936
XALQEJ,COc1cc2c(=O)ccn(-c3ccc([N+](=O)[O-])cc3)c2cc1OC,1.4142,250.034,382.9058867,0.652990744
OMAZEI,COc1cc(/C=C/c2ccc(/C=C/c3ccc([N+](=O)[O-])cc3)cc2)cc(OC)c1,1.33,315.637,483.3807554,0.652978002
DUMVOZ,Cc1cc(C)n2c1c(-c1ccc([N+](=O)[O-])cc1)cc1ccccc12,1.3482,254.249,389.3716272,0.65297259
SUGBED,O=[N+]([O-])CC1CC23OC(C=CC2(O)c2ccccc21)Nc1ccccc13,1.417,267.897,410.317803,0.652901234
MUBROR,O=[N+]([O-])c1ccc(COc2ccc3ncccc3c2)cc1,1.3836,219.476,336.1584316,0.652894526
GEKKUE,O=[N+]([O-])c1ccc2c(c1)[N+](=O)C1(CCCCC1)[N-]2,1.4182,188.901,289.3295056,0.652892278
XUMRUT,Cc1ccc(C/C=N/Nc2ccc([N+](=O)[O-])cc2[N+](=O)[O-])cc1,1.3974,243.691,373.2624582,0.652867693
UTOMUO,CC/C(=C1\C(=O)N(Cc2ccccc2)c2ccccc21)[N+](=O)[O-],1.3496,247.51,379.1179483,0.652857511
VADZEF,O=C(O[C@H]1CCCC[C@@H]1O)c1ccc([N+](=O)[O-])cc1[N+](=O)[O-],1.4613,230.047,352.3705025,0.652855441
AZORUD,O=[N+]([O-])c1ccc(/N=C/c2c3ccccc3cc3ccccc23)cc1,1.3524,261.417,400.4220936,0.652853587
GEXKUP,N/C(=N\c1ccc([N+](=O)[O-])cc1)c1ccccc1,1.362,191.899,293.9397659,0.652851442
VAWWEX,O=[N+]([O-])c1cccc2cc3c(nc12)C1Cc2cc4cccc([N+](=O)[O-])c4nc2C(C3)C1,1.4301,312.415,478.5411843,0.652848721
SUWFIZ,O=[N+]([O-])c1ccc(N2CCCCCCC2)c2nonc12,1.41,212.302,325.1975833,0.65284003
SOZMAX,N#CC1(c2ccccc2[N+](=O)[O-])CC(=O)N2C(c3ccccc3)COC21,1.401,270.124,413.7943245,0.65279774
AFEXEP,CCC(=O)Nc1ccc([N+](=O)[O-])cc1,1.3821,152.21,233.1750361,0.652771422
FADGUM,C[C@@H](OC(=O)c1cc([N+](=O)[O-])cc([N+](=O)[O-])c1)c1ccccc1,1.419,241.449,369.8837714,0.65276992
TIVMUH,Cc1cccc(NC(=O)Nc2ccc([N+](=O)[O-])cc2)c1,1.3804,212.882,326.1239532,0.652764073
PURSEB01,O=[N+]([O-])c1ccc(OCCN(CCOc2ccc([N+](=O)[O-])cc2)CCOc2ccc([N+](=O)[O-])cc2)cc1,1.4218,390.463,598.1737781,0.65275847
PUVSEE,CN(C)/C=C1\N=C(c2ccccc2[N+](=O)[O-])OC1=O,1.4088,200.878,307.737842,0.652756901
AFONUE,O=C1C=CC([N+](=O)[O-])=C/C1=C/NC1CCCCC1N/C=C1/C=C([N+](=O)[O-])C=CC1=O,1.4176,315.132,482.7855777,0.65273698
SOBWEM,O=[N+]([O-])/C(=C\C1=[N+]([O-])O[C@H](c2ccccc2)C1)c1ccccc1,1.3818,243.25,372.6619987,0.652736262
SUYREK,COC(CN1CCN/C1=C\[N+](=O)[O-])OC,1.4129,166.551,255.1678453,0.652711551
HAWSOO,Cc1ccc(C)c([N+](=O)[O-])c1[N+](=O)[O-],1.4198,149.657,229.2984816,0.652673314
REVRIV,CCn1ncc2c([N+](=O)[O-])cccc21,1.3962,148.32,227.2525231,0.652666021
JAXTUY,CCOC(=O)C12N3COCN1C(=O)N1Cc4c([N+](=O)[O-])ccc(OC)c4CN(C3=O)C12C(=O)OCC,1.4975,365.573,560.1622326,0.652619864
ZERJIR,N/C(=N/[N+](=O)[O-])Nc1ccccc1,1.4151,137.896,211.3034296,0.652597075
VOPZOP,Cc1cn2cccc(C)c2c1[N+](=O)[O-],1.3727,150.049,229.9389978,0.652560033
WACFUD,Cc1c(/N=C/c2c(O)ccc3ccccc23)cccc1[N+](=O)[O-],1.3663,242.774,372.034249,0.6525582
NODXEK,O=C1CCCC2=C1C(c1ccccc1[N+](=O)[O-])C1=C(CCCC1=O)O2,1.4148,259.719,398.0259987,0.652517677
LIPVEN,O=[N+]([O-])c1cccc(/C=C/c2ccc3cccc(O)c3n2)c1,1.376,230.01,352.4970974,0.652516011
TETZOH,CCc1cccc(CC)c1/N=C1\c2cc([N+](=O)[O-])ccc2-c2c1cc([N+](=O)[O-])cc2[N+](=O)[O-],1.4045,344.182,527.4697377,0.65251516
KEZMEK,Cc1ncc(-c2ccc([N+](=O)[O-])cc2)n1C,1.3667,172.11,263.7678797,0.652505529
HUDJEW,O=[N+]([O-])c1ccc(/C=N/c2ccc(Oc3ccc(/N=C/c4ccc([N+](=O)[O-])cc4)cc3)cc2)cc1,1.3789,366.279,561.3544791,0.652491453
IBORID,COC(=O)C(C)(C)NC(=O)c1cc2cc(NC(=O)c3cc4cc([N+](=O)[O-])ccc4oc3=O)ccc2oc1=O,1.4565,387.659,594.1300082,0.652481771
QADNEQ,COc1ccc(NC2C3=C(OC2(C)C)c2ccccc2C(=O)C3=O)c([N+](=O)[O-])c1,1.4137,302.056,462.9481765,0.652461799
NOFWAJ,COc1cccc2c1OCC1([N+](=O)[O-])C(c3ccccc3)C=C(C(=O)OCc3ccccc3)C21,1.3867,357.188,547.4489822,0.652458972
DEMNOY,CC1=C[C@@](C)([N+](=O)[O-])[C@](C)([N+](=O)[O-])[C@](C)([N+](=O)[O-])C1=O,1.4783,210.397,322.4767136,0.652440908
HEYQOS,COc1nc(OC)nc(C(CCC(=O)NCc2ccco2)([N+](=O)[O-])[N+](=O)[O-])n1,1.4793,290.095,444.6485351,0.652414159
SAQYAK,O=C(O[C@@H]1[C@@H]2[C@@H]3C=C[C@H]1C[C@@H]32)c1cc([N+](=O)[O-])cc([N+](=O)[O-])c1,1.463,234.057,358.7594475,0.652406513
NEQSIN,CN(C)/C=N/c1ccc([N+](=O)[O-])cc1C#N,1.3532,174.587,267.620656,0.652367432
GASWII,CCOC(=O)Nn1c(C(=O)c2ccccc2)cn(-c2cccc([N+](=O)[O-])c2)c1=O,1.4209,301.978,462.9286072,0.652320888
SERMUZ,CCOC(=O)c1n[nH]c2cc([N+](=O)[O-])ccc12,1.4531,175.217,268.6253411,0.652272787
MUFCIA,O=C(OC1C=CCC2OC12)c1ccc([N+](=O)[O-])cc1,1.4218,198.884,304.9109702,0.652269086
DUXCEF,O=C(c1ccccc1)n1c(-c2ccccc2)nc2cc([N+](=O)[O-])ccc21,1.3822,268.851,412.2013493,0.652232217
CIWYEO,C=Cc1ccccc1/C=C/C=C/c1ccc([N+](=O)[O-])cc1,1.29,232.661,356.72041,0.652222283
YORSAB,COC(=O)C1=CN2c3ccccc3OC2CC1c1ccc([N+](=O)[O-])cc1,1.4117,270.134,414.1865081,0.652203765
IKACIH,CC1(C)OC(=O)C(=CNc2ccc([N+](=O)[O-])cc2)C(=O)O1,1.4474,218.545,335.0909712,0.652196027
RUVSEG,COc1cc([N+](=O)[O-])cc(OC)c1OC,1.4177,162.761,249.5687505,0.65216899
NIPHAC,CC(=O)Oc1ccc([N+](=O)[O-])cc1,1.4178,138.285,212.0404044,0.652163442
VOYJAX,CC(C)N(CC(=O)Nc1ccc([N+](=O)[O-])cc1)CC(=O)Nc1ccc([N+](=O)[O-])cc1,1.3962,322.016,493.7664618,0.65216256
CUNCOE,N#CC1(C#N)[C@H](c2ccccc2)[C@H]1c1ccc([N+](=O)[O-])cc1,1.3326,234.928,360.2392025,0.65214446