name,smiles,Density,Vint,Veff,pc
RIZGUD,C/C(=N\Nc1ccc([N+](=O)[O-])cc1[N+](=O)[O-])c1ccco1,1.5303,217.431,314.763208,0.690776414
POHTIS,CCOC(=O)C(=CNc1ccccc1[N+](=O)[O-])C(=O)OCC,1.4796,238.837,345.7909224,0.690697715
WOVXUA,O=[N+]([O-])c1cn(-c2cn(-c3ccccc3)cn2)cn1,1.4965,195.494,283.0461625,0.690678857
GETWAE,O=C1c2ccccc2C(=Cc2ccc(O)c([N+](=O)[O-])c2)c2ccccc21,1.464,268.768,389.1571385,0.69064132
XARYIY,O=[N+]([O-])C1=C[C@@]2([N+](=O)[O-])[C@@H]3C=C[C@@H](CC3)[C@H]2c2c1[n-]o[n+]2=O,1.61,217.97,315.6790636,0.690479747
BAXSEY,O=[N+]([O-])c1ccc(OC2OC(CO)C(O)C(O)C2O)cc1,1.5732,219.425,317.8064201,0.69043602
KOWRUJ,O=[N+]([O-])[C@@H]1C=C[C@H](C([N+](=O)[O-])([N+](=O)[O-])[N+](=O)[O-])c2ccccc21,1.6075,231.088,334.7379249,0.690354999
ACERIK,O=[N+]([O-])c1ccc(N/N=C/c2ccccc2[N+](=O)[O-])cc1,1.502,218.338,316.2770852,0.690337714
CEQXEB,CC(C)=NNc1c([N+](=O)[O-])cc([N+](=O)[O-])cc1[N+](=O)[O-],1.569,206.788,299.5803716,0.690258841
WIGXAN,O=c1c(O)ccccc1[N+](=O)[O-],1.5267,125.366,181.6705947,0.690073153
VILQEP,N#CCN1C(=O)C(O)=C(C(=O)c2cccc([N+](=O)[O-])c2)[C@@H]1c1ccccc1,1.476,281.885,408.4958099,0.690056038
ZIZSAF,Cc1ccc(O)c([N+](=O)[O-])n1,1.516,116.428,168.7303697,0.690023972
WOJPES,Cc1ccc(/C=C/c2c([N+](=O)[O-])cc([N+](=O)[O-])c(/C=C/c3ccc(C)cc3[N+](=O)[O-])c2[N+](=O)[O-])c([N+](=O)[O-])c1,1.5195,403.452,584.7864282,0.689913412
EYUFEJ,O=NN(CCCO[N+](=O)[O-])CN1C(=O)C(=O)c2cc([N+](=O)[O-])ccc21,1.582,255.623,370.6022135,0.689750332
VINCOK,O=[N+]([O-])c1cc([N+](=O)[O-])c(Nc2cccc3ccccc23)c([N+](=O)[O-])c1,1.5453,262.382,380.477637,0.689612147
EXOQEO,O=[N+]([O-])c1cccnc1Nc1ccc(O)cc1,1.4975,176.692,256.2307366,0.689581595
NIPCIM,O=[N+]([O-])c1ccc(N=C=Nc2ccc([N+](=O)[O-])cc2)cc1,1.5008,216.727,314.2997025,0.689555218
PESNAF,O=[N+]([O-])c1ccc(-n2cnc3ccccc32)cc1,1.47,186.225,270.0671924,0.68955062
OJARIA,CO[C@@]12C(=O)c3cccc([N+](=O)[O-])c3N1C[C@@H]1O[C@@H]12,1.5527,193.25,280.2699349,0.689513843
NOSLIQ,O=[N+]([O-])OCC1(CO[N+](=O)[O-])COC(c2cccnc2)=N1,1.5826,215.628,312.7448804,0.68946932
ZUHQOI,C[C@]12CC[C@@]1(C)N([N+](=O)[O-])C(=O)N2[N+](=O)[O-],1.5929,165.36,239.8431397,0.689450614
BCBDNT,O=[N+]([O-])O[C@H]1c2ccccc2[C@H]1O[N+](=O)[O-],1.5933,162.402,235.5696392,0.689401234
VACTOL,O=c1oc2cc(O)ccc2cc1-c1ccc([N+](=O)[O-])cc1,1.5058,215.192,312.146121,0.68939508
VIFBAN,O=C(OC(=O)c1cccc([N+](=O)[O-])c1)c1cccc([N+](=O)[O-])c1,1.5371,235.344,341.4251837,0.68929889
LOSSUK,O=C(COC(=O)c1ccccn1)c1ccc([N+](=O)[O-])cc1,1.4913,219.505,318.5338483,0.689110439
ITAYOT,O=C(OCC(=O)c1cc2ccccc2o1)c1ccc([N+](=O)[O-])cc1,1.5024,247.569,359.286723,0.689056912
LUJPUD,COc1cc([N+](=O)[O-])c2oc3ccccc3c2c1,1.5045,184.84,268.2712356,0.68900417
GATYIK,O=c1ccc2cc([N+](=O)[O-])ccc2[nH]1,1.5151,143.503,208.2877964,0.688964992
LIBXEZ,O=[N+]([O-])c1ccc2nn(-c3ccccc3)cc2c1,1.4649,186.619,271.0074221,0.688612137
NAWQAD,O=[N+]([O-])c1cc([N+](=O)[O-])c(N2CCOCC2)c([N+](=O)[O-])c1,1.5962,213.518,310.0802204,0.688589552
DUDZIL,Nc1ccc([N+](=O)[O-])cc1C(=O)c1ccccc1,1.4582,189.818,275.6686446,0.688573052
NAMPIB,COC(=O)c1cc([N+](=O)[O-])ccc1O,1.5369,146.565,212.8909106,0.688451186
ROKPIQ,O=C1OCc2ccc([N+](=O)[O-])cc21,1.5455,132.415,192.3543816,0.688390869
TEBHAJ,O=[N+]([O-])c1cc([N+](=O)[O-])c2ccccc2c1,1.5271,163.203,237.0933113,0.688349237
ZAPDUR,Nc1ccc(C(=O)N/N=C/c2cccc([N+](=O)[O-])c2)cc1,1.4582,222.692,323.5231213,0.688334111
RUBXOD,O=C(c1cc([N+](=O)[O-])cc([N+](=O)[O-])c1)N1CC=CC1,1.5267,196.938,286.1255245,0.688292316
SUVLAW,O=[N+]([O-])c1cccc(/N=N/Nc2cccc([N+](=O)[O-])c2)c1,1.514,216.712,314.861884,0.688276387
LILJUL,O=[N+]([O-])c1ccc(/C=C/c2ccc3c(c2)OCO3)c([N+](=O)[O-])c1,1.5177,236.435,343.6238276,0.688063461
CUDYIL,COC(=O)CCn1cc([N+](=O)[O-])c(=O)[nH]c1=O,1.5738,176.454,256.4540562,0.688053067
HOWSOD,O=C1C=CC2(C=C1)C(C(=O)c1ccccc1)C(=O)N2Cc1ccc([N+](=O)[O-])cc1,1.4488,306.058,444.8431071,0.688013358
UDOVAL,COc1cc([N+](=O)[O-])c2c(ccc3ccc4ccccc4c32)c1OC,1.4626,260.17,378.1936547,0.687927988
PNOIZA,O=[N+]([O-])c1ccc2cc(-c3ccccc3)cn2c1,1.4348,189.482,275.5408854,0.687672901
PUHFEE02,O=C1Nc2ccccc2[C@]1(O)C[N+](=O)[O-],1.5341,154.866,225.2038227,0.687670388
DORKOL,O=C(Nc1cc([N+](=O)[O-])cc([N+](=O)[O-])c1)[C@@H]1CCCN1,1.5317,208.784,303.6509277,0.687578996
CUNTAG,O=[N+]([O-])c1cc2ccc3ccccc3c2o1,1.4858,163.692,238.1064276,0.687474092
LIPVUB01,N#C/C(=C1/NCCN1CCN)[N+](=O)[O-],1.4723,152.819,222.2982888,0.687450186
NITPOL,O=[N+]([O-])c1ccc(O)cc1,1.4901,106.505,154.9346632,0.687418799
KARJOC,O=[N+]([O-])c1ccc2c(c1)C(c1ccccc1)=NCN2,1.4601,197.865,287.8386146,0.687416455
WENRAJ,O=C1Nc2ccc([N+](=O)[O-])cc2C1=O,1.5613,140.386,204.2295569,0.687393158
LAPCUC,O=C(N/N=C/c1cccc([N+](=O)[O-])c1)c1cccc([N+](=O)[O-])c1,1.5058,238.069,346.351798,0.687361814
JODHOA,Nc1nnnn1-c1ccc([N+](=O)[O-])cc1,1.539,152.799,222.33613,0.68724323
XINJAF,CC(=O)CC1(O)C(=O)c2ccccc2-c2ccc([N+](=O)[O-])cc21,1.48,239.827,349.0394635,0.687105686
GIQVEJ01,O=[N+]([O-])c1ccc2nc(-c3ccccc3)cnc2c1,1.4549,196.891,286.5667556,0.687068532
OBOKIC,O=[N+]([O-])c1ccc(O)c(/C=N/c2ccc(Nc3ccccc3)cc2)c1,1.4379,264.316,384.7031737,0.687064776
SOLTAP,O=C1C=CC=C/C1=C/Nc1cc([N+](=O)[O-])ccc1O,1.4826,198.592,289.0470611,0.687057669
DELZAV,C[C@]1(O)C(=O)[C@@](O)(c2ccccc2)C=C([N+](=O)[O-])[C@H]1[N+](=O)[O-],1.5341,229.105,333.4670666,0.68703936
YIJPIQ,O=[N+]([O-])c1ccc(N[C@@H]2O[C@H](CO)[C@H](O)[C@H](O)[C@H]2O)cc1,1.5497,220.928,321.5712743,0.68702654
YUYSIU,Cn1cc([N+](=O)[O-])nc1-c1ncc([N+](=O)[O-])n1C,1.5612,184.19,268.1091487,0.686996326
OMOTIT,O=[N+]([O-])c1cccc2nn([C@@H]3O[C@H](CO)[C@@H](O)[C@H]3O)cc12,1.5599,215.805,314.1294766,0.686993791
CUNTUA,CC(=N\Nc1ccccc1[N+](=O)[O-])/C(C)=N/Nc1ccccc1[N+](=O)[O-],1.4791,274.669,399.8231065,0.686976304
TUSYAJ,C[C@@]1([N+](=O)[O-])N=NC[C@H]1[C@H]1CN=N[C@]1(C)[N+](=O)[O-],1.5401,189.689,276.1290696,0.686957734
ZZZMBE02,O=C(O)/C=C/c1cccc([N+](=O)[O-])c1,1.4778,149.005,216.9157431,0.686925706
YALQEK,Cn1nc(N)c([N+](=O)[O-])n1,1.5752,103.579,150.7995208,0.686865578
COMGUG,O=C1c2ccccc2C(=O)N1c1ccccc1[N+](=O)[O-],1.4991,203.942,296.9256116,0.686845432
YOVJUP,Cc1ccnc(N)c1[N+](=O)[O-],1.4957,116.701,169.9279162,0.686767676
YEWBOS,COc1cc(OC)c2c(ccc3ccccc32)c1[N+](=O)[O-],1.4602,221.084,321.9353861,0.686734076
IDIKEL,Cc1cc(=O)c2cc3oc(C)c([N+](=O)[O-])c3cc2o1,1.5297,193.101,281.2154206,0.686665758
HEVPIH,CC(=O)C(=Cc1ccc(-c2ccccc2[N+](=O)[O-])o1)C(C)=O,1.4575,233.969,340.7555444,0.686618322
VAMBET,O=c1c2cccnc2nc2n1CC/C2=C\c1ccc([N+](=O)[O-])cc1,1.4821,246.235,358.6418025,0.686576407
DARWAX,O=C(c1ccccn1)c1ccc([N+](=O)[O-])cc1[N+](=O)[O-],1.5281,203.713,296.7134676,0.686564724
WASMAE,COC(=O)[C@@]12[C@@H]3[C@H]4[C@@H]5[C@@H]([C@H]1[C@@]53[N+](=O)[O-])[C@]42[N+](=O)[O-],1.5928,180.389,262.766634,0.68649888
HUHTAF,O=c1oc(-c2ccccc2[N+](=O)[O-])nc2ccccc12,1.5048,203.05,295.8008934,0.68644147
IVEQOR,CCOC(=O)C1N=C(c2ccc([N+](=O)[O-])cc2)OC1c1ccc([N+](=O)[O-])cc1,1.5061,291.452,424.5947243,0.686423979
LANFIR,Cc1cccc(C(=O)N/N=C/c2cc(O)ccc2[N+](=O)[O-])c1O,1.4915,240.8,350.8085923,0.686414202
LAPWEH,Cc1cc(-n2cnnn2)c([N+](=O)[O-])cc1[N+](=O)[O-],1.5656,182.037,265.2176894,0.686368245
YUQMAZ,O=C(Nc1ccccc1)c1cc([N+](=O)[O-])ccc1O,1.481,198.601,289.3593333,0.68634731
WINVEV,COc1cc(C=C2c3ccccc3C(=O)c3ccccc32)cc([N+](=O)[O-])c1O,1.4681,289.637,422.0159352,0.686317686
SOYRII,Cc1cc([N+](=O)[O-])ccc1O,1.4719,118.482,172.6629051,0.686204138
SUMDEM,Cc1cc(C(=O)N/N=C/c2ccc([N+](=O)[O-])cc2)n[nH]1,1.4803,210.162,306.3479875,0.686023766
KOLVIS,NC(=O)NNC(=O)c1ccc([N+](=O)[O-])cc1,1.541,165.634,241.4438634,0.686014536
NPBUDY,O=[N+]([O-])c1ccc(C#CC#Cc2ccc([N+](=O)[O-])cc2)cc1,1.4413,230.83,336.4848291,0.686004182
EVINOM,O=C1C=Cc2ccccc2/C1=C/Nc1ccc([N+](=O)[O-])cc1,1.4488,229.628,334.7846536,0.685897629
IZEQUA,CN1C(=O)/C(=N\Nc2ccc([N+](=O)[O-])cc2)C(=O)c2ccccc21,1.4971,246.545,359.4796411,0.685838562
EGURIH,O=C(N[C@H]1CC[C@H]1C(=O)O)c1cc([N+](=O)[O-])cc([N+](=O)[O-])c1,1.5488,227.262,331.3691486,0.685827274
SABFIM,O=C(Nc1cccc([N+](=O)[O-])c1)c1ccccc1O,1.4806,198.502,289.4375069,0.685819893
ESOLAB,O=[N+]([O-])c1ccccc1[C@@H]1O[C@H]1c1ccccc1[N+](=O)[O-],1.4954,217.857,317.6605108,0.685817067
COPCUI,O=[N+]([O-])OCC1C(CO[N+](=O)[O-])C(CO[N+](=O)[O-])C1CO[N+](=O)[O-],1.6431,246.778,359.8372664,0.685804454
VELTIQ,O=C(OC(=O)c1ccccc1[N+](=O)[O-])c1ccccc1[N+](=O)[O-],1.5302,235.199,342.9647431,0.685781862
SITLUF,COc1cc(/C=N/N=C/c2ccc([N+](=O)[O-])cc2)ccc1O,1.4492,235.031,342.720025,0.685781346
NAWPUW,O=[N+]([O-])c1cc([N+](=O)[O-])c(N2CCCC2)c([N+](=O)[O-])c1,1.5781,203.54,296.8055843,0.685768768
ACISAI,O=[N+]([O-])c1cnn(Cc2ccc(Cn3cc([N+](=O)[O-])cn3)cc2)c1,1.5052,248.209,361.9649083,0.685726694
KEJGIP,CCOC(=O)Nc1c([N+](=O)[O-])cc([N+](=O)[O-])cc1[N+](=O)[O-],1.6006,213.452,311.2812786,0.685720648
ZAPKOS,O=C(N/N=C/c1cccc([N+](=O)[O-])c1)c1ccc(O)cc1,1.4715,220.598,321.7094608,0.685705666
WAKSUX,CN(/C(N)=N/[N+](=O)[O-])[N+](=O)[O-],1.6432,112.969,164.7605377,0.685655689
VIHGAU,CN(c1ccccc1)c1c([N+](=O)[O-])cc([N+](=O)[O-])cc1[N+](=O)[O-],1.5336,236.134,344.3991214,0.685640541
CUBHEO,COc1ccc(N2C(=O)c3cccc([N+](=O)[O-])c3C2=O)cc1,1.5012,226.02,329.707386,0.685516945
DAVXED,CC1=C([N+](=O)[O-])[C@@](C)([N+](=O)[O-])[C@](C)([N+](=O)[O-])C(=O)[C@@]1(C)[N+](=O)[O-],1.592,237.434,346.3690619,0.685494249
XETKAK,O=[N+]([O-])c1ccc(Cn2ccnn2)cc1[N+](=O)[O-],1.539,184.207,268.7278129,0.685477986
XAHZIS,O=[N+]([O-])c1cccc([C@@H]2O[C@H]2c2c([N+](=O)[O-])cc([N+](=O)[O-])cc2[N+](=O)[O-])c1,1.5762,271.56,396.1641731,0.685473393
BUBNER,O=C(O)C1CC1c1cccc([N+](=O)[O-])c1,1.4659,160.779,234.5538398,0.685467354
BUTDID,O=C(Nc1ccc([N+](=O)[O-])cc1)c1ccccc1,1.4399,191.347,279.1721768,0.685408561
OTOFIN,Cc1ccc(Nc2cc(O)c([N+](=O)[O-])cc2[N+](=O)[O-])cc1N,1.5222,227.326,331.7281079,0.685278077
BOBMAG01,O=[N+]([O-])c1ccc(N(c2ccc([N+](=O)[O-])cc2)c2ccc([N+](=O)[O-])cc2)cc1,1.5081,286.79,418.5091711,0.685265747
CIQCAJ,COC1=CC=C/C(=C/Nc2cc([N+](=O)[O-])ccc2O)C1=O,1.4908,219.888,320.8859111,0.685252896
TAYVUN,Cc1c2oc3cc([N+](=O)[O-])ccc3nc-2c2ccccc2c1=O,1.4961,232.791,339.7165783,0.685250632
KAYVAH,O=[N+]([O-])c1ccc(-n2cccn2)c([N+](=O)[O-])c1,1.5387,173.076,252.5801034,0.685232121
YEJNAC01,O=[N+]([O-])c1ccccc1/N=N/c1ccc(O)cc1,1.4689,188.28,274.7857089,0.685188472
KOVHIM,O=[N+]([O-])C(=C1NCCCCN1)[N+](=O)[O-],1.5638,147.006,214.5784513,0.685092092
OJOYIY02,O=C1CN(/N=C/c2ccc(-c3ccc([N+](=O)[O-])cc3)o2)C(=O)N1,1.5144,235.924,344.3849296,0.685059013
OXIRUK,C#CCn1cnc([N+](=O)[O-])n1,1.4866,116.327,169.8282701,0.68496841
RUSCOZ,N#C/C(=C\c1ccc(-n2ccnc2)cc1)c1ccc([N+](=O)[O-])cc1,1.4152,254.044,370.9080414,0.684924487
TAFDUZ,O=[N+]([O-])C1([N+](=O)[O-])[C@H]2C[C@H]3C[C@@H]1C([N+](=O)[O-])([N+](=O)[O-])[C@@H](C2)C3,1.646,218.393,318.8690106,0.684898791
SIDVOQ,O=[N+]([O-])c1ccc(N/N=C/c2ccc(O)c(O)c2)cc1,1.4856,209.06,305.2425092,0.684898052
YICNAA,O=[N+]([O-])c1ccc(-n2nnnc2-n2nnc3ccccc32)cc1,1.5244,229.804,335.6026646,0.684750225
YUYLEJ,COC(=O)/C=C/c1cc([N+](=O)[O-])cc([N+](=O)[O-])c1,1.5212,188.351,275.1345613,0.684577754
JAKCOO,Cc1ccnc(/N=N/c2nccc(C)c2[N+](=O)[O-])c1[N+](=O)[O-],1.5081,227.703,332.6224996,0.684568844
WOCMUZ,Nc1ncc(C(=O)c2ccc([N+](=O)[O-])cc2)[nH]1,1.505,175.257,256.0519856,0.684458664
GEYREK,O=[N+]([O-])c1nc2n(n1)CCCn1nc([N+](=O)[O-])nc1-2,1.6332,185.151,270.5147097,0.684439675
MENOIM,Cc1nc([N+](=O)[O-])c[nH]1,1.5182,95.105,138.9537582,0.684436328
YOHWEA,O=[N+]([O-])c1cccc(-c2conc2[N+](=O)[O-])c1,1.557,171.561,250.6609258,0.684434558
AMNIFL,Nc1ccc2c(c1)Cc1cc([N+](=O)[O-])ccc1-2,1.4502,177.182,258.8738535,0.684433741
XINFAE,CC1=NN(c2ccccc2)C(=O)/C1=N\Nc1ccc([N+](=O)[O-])cc1O,1.4889,258.851,378.2014034,0.684426334
HOYVUN,CC(=O)/C(=N/Nc1ccc([N+](=O)[O-])cc1)C(=O)Nc1ccc2[nH]c(=O)[nH]c2c1,1.5036,288.813,422.0002153,0.684390646
BERHEL,COc1ccc2c(ccc3oc([N+](=O)[O-])cc32)c1,1.4901,185.367,270.86375,0.684355142
BAFHAS,O=[N+]([O-])c1ccc(N/N=C/c2cccc(O)c2)c([N+](=O)[O-])c1,1.5158,226.457,330.9205287,0.684324424
MTNOAN10,CC(=O)N(C)c1c([N+](=O)[O-])cc([N+](=O)[O-])cc1[N+](=O)[O-],1.5752,204.903,299.4385851,0.68429057
AKEDUR,Cn1cc(C(=O)c2ccccc2O)cc([N+](=O)[O-])c1=O,1.5033,207.148,302.7355337,0.684254
GAQMOB,Cn1cc2cccc([N+](=O)[O-])c2n1,1.4829,135.656,198.2706751,0.684195985
IKABUS,O=[N+]([O-])c1ccc(O)c(-c2nc3ccccc3[nH]2)c1,1.4986,193.377,282.6370799,0.684188359
TAFFIP,O=[N+]([O-])[C@H]1c2ccccc2[C@H]([N+](=O)[O-])c2ccccc21,1.4823,206.984,302.5489932,0.684133825
PILHOI,COc1ccc([N+](=O)[O-])c([N+](=O)[O-])c1-c1c([N+](=O)[O-])ccc([N+](=O)[O-])c1OC,1.5876,281.965,412.1581717,0.684118427
DARWEB,O=C(c1ccncc1)c1ccc([N+](=O)[O-])cc1,1.4501,178.654,261.158285,0.684083218
GOJROM02,Cc1ccc([N+](=O)[O-])cc1C(=O)O,1.493,137.747,201.3602714,0.684082312
CELZUO,COc1cccc2cc3cc([N+](=O)[O-])oc3cc12,1.4876,185.602,271.3189525,0.684073111
EHAPAH,CC1=C/C(=C/Nc2cc([N+](=O)[O-])ccc2O)C(=O)C=C1,1.4629,211.224,308.8492455,0.683906479
XEKWIW,O=C=Nc1ccc([N+](=O)[O-])cc1,1.49,125.018,182.8021825,0.683897743
IBIZOJ,N#Cc1ccccc1-n1ncc([N+](=O)[O-])n1,1.4911,163.765,239.4893736,0.683809045
UDUROB,COC(=O)C1=C(C)NC(C)=C(C(=O)OCCN2C(=O)c3ccccc3C2=O)C1c1cccc([N+](=O)[O-])c1,1.4758,388.665,568.4033226,0.683783828
VATWUK,COc1ccc(C(=O)c2cccc([N+](=O)[O-])c2)c(O)c1,1.474,210.319,307.6320335,0.683670675
LEFRET,O=C(O)CCC1([N+](=O)[O-])CN([N+](=O)[O-])CN([N+](=O)[O-])C1,1.627,204.488,299.1129084,0.683648195
DUPJUV,O=[N+]([O-])Cc1nnc(-c2ccccc2)o1,1.492,156.021,228.2197986,0.68364358
MUTXAD,C/C(=N\Nc1ccc([N+](=O)[O-])cc1[N+](=O)[O-])c1ccccc1O,1.5002,239.172,349.8758338,0.683591083
QOQWUO,Cc1ccc(O)c(-c2nn(-c3ccc([N+](=O)[O-])cc3[N+](=O)[O-])cc2C=O)c1,1.5118,276.358,404.3037974,0.683540451
SAKDOZ,O=COCC(=O)c1ccc([N+](=O)[O-])cc1,1.4976,158.43,231.783681,0.683525257
XUWCEX,O=[N+]([O-])c1ccc(/C=C/c2ccc([N+](=O)[O-])cc2)cc1,1.4514,211.192,308.9901976,0.683490938
LAGVEU,CC(=O)O[C@@H]1N([N+](=O)[O-])C(=O)c2ccccc2N1[N+](=O)[O-],1.5983,210.223,307.5785893,0.683477353
HELWAW,O=[N+]([O-])c1ccc(C2OCC3OC(c4ccc([N+](=O)[O-])cc4)OCC3O2)cc1,1.5396,286.071,418.5914258,0.683413425
GAKWUM,O=[N+]([O-])c1ccc(/C=N/n2cnnc2)c([N+](=O)[O-])c1,1.545,192.459,281.6517892,0.683322483
SAHBEK,CNC(=O)c1cc([N+](=O)[O-])cc([N+](=O)[O-])c1,1.5366,166.176,243.1986528,0.683293259
ERUDAX,COC(=O)Nc1ccc([N+](=O)[O-])cc1,1.4997,148.327,217.0820725,0.683276137
UHURAS,O=[N+]([O-])c1ccc([C@@H]2O[C@@H]2c2ccc([N+](=O)[O-])cc2)cc1,1.4866,218.331,319.5409175,0.683264609
UQACAR,COC(=O)/C(C)=N\Nc1ccc([N+](=O)[O-])cc1,1.4656,183.524,268.6180892,0.683215343
LEFKOY,COC(=O)c1cccc([N+](=O)[O-])c1C(=O)O,1.5398,165.793,242.6811247,0.683172209
SITKAI,N#Cc1cccc(Oc2ccccc2[N+](=O)[O-])c1C#N,1.4374,209.098,306.205607,0.682867966
IMISAY,C[N+](=O)[N-]OCN(CN(CN(CO[N-][N+](C)=O)[N+](=O)[O-])[N+](=O)[O-])[N+](=O)[O-],1.6286,268.823,393.6756223,0.682854068
XETKIS,O=[N+]([O-])c1ccc(Cn2ccnn2)c([N+](=O)[O-])c1,1.5385,183.542,268.8151472,0.682781465
JOTFED,CC(=O)N1CN(C(C)=O)[C@H]2[C@@H]1N([N+](=O)[O-])CN2[N+](=O)[O-],1.5956,204.708,299.8174294,0.682775516
ACALAR,O=C(Nc1ccccc1)c1ccc([N+](=O)[O-])cc1,1.4378,190.885,279.5799259,0.682756458
NUPJAJ,COc1ccc2ccc(OC)c([N+](=O)[O-])c2c1[N+](=O)[O-],1.5283,206.215,302.1241137,0.682550616
FEFHUW,Cn1cnc(-c2conc2-c2ccccc2)c1[N+](=O)[O-],1.48,206.833,303.031775,0.682545585
TACGIN,O=[N+]([O-])c1cnn(Cn2cc([N+](=O)[O-])cn2)c1,1.5685,172.01,252.0227061,0.682517868
NAQSUW,Nc1cc([N+](=O)[O-])ccc1-c1ccc([N+](=O)[O-])cc1,1.4945,196.462,287.8513771,0.682511934
IHESUJ,O=C(Nc1ccccc1)c1c(/N=N/c2ccccc2)cc([N+](=O)[O-])cc1[N+](=O)[O-],1.4729,300.932,440.9306978,0.68249274
QUFSAN,O=C(Nc1cc([N+](=O)[O-])cc([N+](=O)[O-])c1)Oc1ccccc1,1.5246,225.268,330.0822469,0.682460211
NIMDES,O=C1OC(c2ccc(O)c([N+](=O)[O-])c2)(c2ccc(O)c([N+](=O)[O-])c2)c2ccccc21,1.5342,301.412,441.6786483,0.682423751
BABRIF,O=[N+]([O-])c1c(-c2ccccc2)[n-]o[n+]1=O,1.542,152.133,222.9511713,0.682360174
HOMDAO,O=C(Cn1ccccc1=O)c1ccc([N+](=O)[O-])cc1,1.4624,199.931,293.0396422,0.682266053
LOHSIL,Cc1nn(-c2ccccc2)c2ncc3c(c12)C(=O)N(c1ccc([N+](=O)[O-])cc1)C3=O,1.4856,304.36,446.1093629,0.68225423
QAGNOF,N#[N+][N-]CC(=O)Nc1ccc([N+](=O)[O-])cc1,1.4933,167.706,245.8204975,0.68222952
NEHFAH,O=[N+]([O-])c1ccc(-c2ccc(O)cc2)cc1,1.4398,169.219,248.0384211,0.682228984
QEJZAH01,COc1ccc(C=O)cc1[N+](=O)[O-],1.4757,138.976,203.7208683,0.682188335
MNPHOL16,O=[N+]([O-])c1cccc(O)c1,1.4884,105.803,155.1116243,0.682108775
TIBGET,O=C1Nc2ccc([N+](=O)[O-])cc2[C@@]12Nc1ccccc1CO2,1.5154,222.034,325.5395748,0.68204918
ZUHXAB,C/C(C/C(C)=N/Nc1ccc([N+](=O)[O-])cc1[N+](=O)[O-])=N\Nc1ccc([N+](=O)[O-])cc1[N+](=O)[O-],1.5344,339.621,497.9517643,0.682035941
LUYJIB,O=C(OCCCNC(=O)c1ccccc1O)c1ccc([N+](=O)[O-])cc1,1.4616,266.636,390.950909,0.682019133
LOZKUJ,O=[N+]([O-])c1ccc(N/N=C/c2c(O)ccc3ccccc23)c([N+](=O)[O-])c1,1.5023,265.413,389.180141,0.681979814
XAVPEQ,O=[N+]([O-])c1ccc(N/N=C/c2ccccn2)c([N+](=O)[O-])c1,1.5056,215.919,316.6185524,0.681953089
LOFRUW,CC(=O)N/N=C/c1ccc([N+](=O)[O-])o1,1.5148,147.301,216.0091726,0.681920116
YEFFAR,COc1ccc(/C=N/Nc2ccc([N+](=O)[O-])cc2[N+](=O)[O-])cc1,1.4913,239.991,351.9638744,0.681862593
VAJGES,O=[N+]([O-])CC1OC(C(O)CO)C(O)C1O,1.5707,160.781,235.8367076,0.681747136
TAPQAD,N#Cc1ccc(Oc2ccc([N+](=O)[O-])cc2)cc1,1.435,189.383,277.7929122,0.681741656
QAJWUV,COC(=O)/C=C\C(=O)Nc1ccc([N+](=O)[O-])cc1,1.4764,191.733,281.2570631,0.681700214
YILPEQ,O=[N+]([O-])c1cnc(N2CCOCC2)nc1,1.5294,155.49,228.0966568,0.681684695
ZZZGVU01,Cc1ccc([N+](=O)[O-])cc1[N+](=O)[O-],1.5096,136.497,200.2408556,0.681664087
XEBKEW,Cc1cccc(C(=O)Oc2c([N+](=O)[O-])cc([N+](=O)[O-])cc2[N+](=O)[O-])c1,1.5486,253.67,372.1379982,0.681655733
NEZBIE,COc1ncc(OC(=O)c2ccc([N+](=O)[O-])cc2)c2cc[nH]c12,1.5022,235.908,346.0816315,0.681654207
JUCSUY,O=C(COc1ccc([N+](=O)[O-])cc1)NN=C(c1ccccn1)c1ccccn1,1.4585,292.653,429.3677463,0.681590554
NPYRAM,O=[N+]([O-])c1cccnc1NCNc1ncccc1[N+](=O)[O-],1.5305,214.51,314.7342643,0.681559094
HAYYEM,C[C@]1([N+](=O)[O-])c2ccccc2[C@H](C([N+](=O)[O-])([N+](=O)[O-])[N+](=O)[O-])c2ccccc21,1.5524,282.921,415.1131096,0.68155159
XOTJUN,N#CCCN(Cc1ccccc1)c1ccc(/N=N/c2ccc([N+](=O)[O-])cc2)cc1,1.3892,313.743,460.3991683,0.681458659
UREXOF,CNC1=C([N+](=O)[O-])[C@H](C[N+](=O)[O-])c2cc(OC)ccc2O1,1.5255,218.893,321.2130912,0.681457282
LUTXAB,CNC1=C([N+](=O)[O-])C=C2C(=O)c3ccccc3O[C@@H]2N1C,1.4958,217.167,318.7208586,0.681370529
UPAJIF,O=[N+]([O-])c1cccc2cccnc12,1.4531,135.504,198.8959365,0.681280887
LUDFAR,O=C/C=C/O/C=C/c1cc([N+](=O)[O-])on1,1.5056,157.816,231.6498081,0.681269721
TICPIE,O=C(/C=C/c1ccc([N+](=O)[O-])cc1)c1ccc2ccccc2c1,1.4,244.913,359.5074968,0.681245877
UFEDOY,O=[N+]([O-])c1ccc(N2CCCC2)c2nonc12,1.521,174.09,255.5591235,0.681212228
OQUPUM01,O=[N+]([O-])c1ccc(/C=N/c2ccc(/N=C/c3ccc([N+](=O)[O-])cc3)cc2)cc1,1.4438,293.06,430.2763257,0.681097198
QEVFEC,O=C1Oc2ccc([N+](=O)[O-])cc2N/C1=C\C(=O)c1ccccc1,1.4968,234.266,343.9897969,0.681026013
MXPNFP,COc1cc(C(=O)/C=C/c2ccc([N+](=O)[O-])o2)ccc1O,1.4796,220.926,324.419284,0.680989111
ORAREH,O=c1c2ccc([N+](=O)[O-])cc2c(-c2ccccc2)c2n1OCC2,1.479,235.541,345.9074789,0.680936419
NAGHOT01,O=[N+]([O-])c1ccc(-c2nnc(-c3ccc([N+](=O)[O-])cc3)o2)cc1,1.512,233.364,342.7178233,0.680921692
MENPND10,COC(=O)C(=NNc1ccc([N+](=O)[O-])cc1[N+](=O)[O-])C(=O)OC,1.5511,237.607,349.0673735,0.680690944
SAXBUR,O=[N+]([O-])c1c(-c2ccccc2)noc1-c1ccccc1,1.4298,210.313,309.0183364,0.680584209
BUMJAU,Nc1c2ccccc2nc2cccc([N+](=O)[O-])c12,1.4656,184.342,270.8779835,0.68053519
XANLAC,O=[N+]([O-])c1ccc(-c2cnc3ccccc3n2)cc1,1.4458,196.222,288.3704335,0.680451174
CEDQAF,O=C(N/N=C/c1cccc(O)c1)c1ccc([N+](=O)[O-])cc1,1.4598,220.659,324.2878967,0.680441676
RUSHIW,N#[N+][N-][C@@]1([N+](=O)[O-])C[C@H]2C[C@@H]1C[C@@]2([N-][N+]#N)[N+](=O)[O-],1.5762,192.162,282.4208935,0.680409999
WADZUY,O=C(Nc1ccccc1)c1ccc(Nc2ccccc2)c([N+](=O)[O-])c1,1.4294,263.297,386.9908307,0.680370125
VOPZIJ,Cc1cn2ccccc2c1[N+](=O)[O-],1.4379,138.323,203.326291,0.680300611
PAMNIA,O=C1CCCN1c1cccc([N+](=O)[O-])c1,1.4598,159.469,234.4145893,0.680286156
DUMSAG,COC(=O)c1cc([N+](=O)[O-])cc([N+](=O)[O-])c1C,1.528,177.441,260.8687793,0.680192549
ONITPH,O=[N+]([O-])c1ccccc1O,1.4923,105.229,154.7062532,0.680185822
MEJFAL,COCN1C(=O)N(COC)C2C1N(Cc1ccc([N+](=O)[O-])cc1)C(=O)N2Cc1ccc([N+](=O)[O-])cc1,1.4958,377.684,555.271381,0.680179121