name,smiles,Density,Vint,Veff,pc
PEYFAC,COc1ccc(/C=C(\C(=O)O)c2ccc([N+](=O)[O-])cc2)cc1,1.439,234.735,345.1363489,0.68012251
PUGWIY,COc1ccccc1C(=O)N/N=C/c1cc(O)ccc1[N+](=O)[O-],1.4739,241.44,354.9976358,0.680117205
GODNUI,O=[N+]([O-])c1cccc2nnc3ccccc3c12,1.4653,173.449,255.0497401,0.680059505
IGAKIL,COC(=O)c1ccc(C(=O)OC)c([N+](=O)[O-])c1,1.4992,180.03,264.7777377,0.679928764
GURDAY,O=[N+]([O-])C([N+](=O)[O-])[C@]12[C@@H]3[C@@H]4[C@H]1[C@@H]1[C@H]2[C@H]3[C@]41C([N+](=O)[O-])[N+](=O)[O-],1.6279,216.42,318.3021158,0.67992008
XOLJAM,O=C1C([N+](=O)[O-])=CC=C/C1=C/NCc1ccco1,1.4688,189.14,278.1957876,0.679880891
MOMHAZ,O=[N+]([O-])c1ccc(-c2nnn3c2COCc2ccccc2-3)cc1,1.4904,233.379,343.2741648,0.679861824
SITPUI,COc1ccc([N+](=O)[O-])c(-n2cncn2)c1[N+](=O)[O-],1.573,190.211,279.8049963,0.67979844
OLUJUD,COC(=O)c1c(N)cccc1[N+](=O)[O-],1.497,147.82,217.4736033,0.679714677
UREJAD,O=[N+]([O-])c1cnccc1-c1ccncc1[N+](=O)[O-],1.5346,180.963,266.2401962,0.679698267
ESIRUV,O=C(c1ccccn1)N1Cc2c(-c3cccc([N+](=O)[O-])c3)cccc21,1.4356,260.296,382.9879527,0.679645399
HOQVUF,O=[N+]([O-])c1ccc(-n2cc(-c3ccccc3)nn2)c([N+](=O)[O-])c1,1.4976,234.421,344.9220704,0.679634677
SAFZOQ,O=C(/C=C/c1ccccc1)/C=C/c1cccc([N+](=O)[O-])c1,1.3736,229.29,337.4025157,0.679574068
OROYUR,COc1ccc(C#N)c([N+](=O)[O-])c1,1.448,138.754,204.1779285,0.679573943
MATBIV01,Cc1ccc(C(=O)O)cc1[N+](=O)[O-],1.4882,137.267,202.0097334,0.679506862
FAKWET,O=[N+]([O-])c1ccc(Nc2ccc([N+](=O)[O-])cn2)cc1,1.5074,194.653,286.4844059,0.679454085
AGIXUM,C[C@@H](c1cccc([N+](=O)[O-])c1)c1c(-c2cccc([N+](=O)[O-])c2)[n-]o[n+]1=O,1.4971,268.352,394.963116,0.679435596
VIGPIN,C[C@@]1([N+](=O)[O-])CO[C@H]2O[C@@H](C#N)[C@@H](C[N+](=O)[O-])[C@H]2C1,1.5273,200.242,294.7398485,0.67938557
NIQQOU,COc1cccc2c1cc([N+](=O)[O-])c1c(C(=O)O)cc3c(c12)OCO3,1.5378,250.209,368.2881571,0.679383779
UNAYUD,COC(=O)C1=C(OC)C(=O)OC1c1ccc([N+](=O)[O-])cc1,1.5105,218.871,322.1745965,0.679355239
MHNTCN,COC(=O)/C=C/c1ccc(O)c([N+](=O)[O-])c1,1.4752,170.547,251.0802799,0.679252867
JITVUD,O=C(/C=C(\O)c1ccccc1)c1ccc([N+](=O)[O-])cc1,1.4278,212.561,312.9399511,0.679238938
YIXNUP,Cn1cnc2ccc([N+](=O)[O-])cc21,1.4685,135.993,200.2149025,0.679235154
LONSAK,O=C1CCC(=O)N1C(=O)c1ccc([N+](=O)[O-])cc1,1.504,186.022,273.8701725,0.679234246
FIZFOL,CCOc1cc(/C=N/Nc2ccc([N+](=O)[O-])cc2[N+](=O)[O-])ccc1O,1.4909,261.823,385.4847874,0.679204494
SAFYAB,N#Cc1cc(N)n(-c2ccc([N+](=O)[O-])cc2)n1,1.4659,176.224,259.4835893,0.679133507
HUZJAN,O=[N+]([O-])O[C@@H]1[C@H]2C[C@@H]3[C@H]([C@H]2O[N+](=O)[O-])[C@H]13,1.6096,151.365,222.8833839,0.679121958
USORUQ,CCn1c(=O)c2cc([N+](=O)[O-])ccc2c2cc3c(cc21)c1ccccc1n3CC,1.4366,302.327,445.1955105,0.67908816
HONHOJ,O=C(/C=C/c1ccc([N+](=O)[O-])cc1)c1cccnc1,1.4152,202.451,298.125507,0.679079768
HEYHEY,O=[N+]([O-])c1ccccc1Nc1cccc2cccc(Nc3ccccc3[N+](=O)[O-])c12,1.4604,308.945,454.9675073,0.679048493
DABTEI,COc1ccc(-c2nc3ccc([N+](=O)[O-])cn3c2C=O)cc1,1.4698,227.915,335.6393194,0.679047379
HUFNON,Cc1nn2c(ccc3ccccc32)c1[N+](=O)[O-],1.4601,175.359,258.2505121,0.679026727
UPIYEY,COc1ccc(C2=C(O)C(=O)OC2c2ccccc2[N+](=O)[O-])cc1,1.4769,249.706,367.7564908,0.678998213
DUCRUQ,COC(=O)c1cc(OC)c(OC)c(OC)c1[N+](=O)[O-],1.4942,204.546,301.2565363,0.67897614
PADZAX,O=[N+]([O-])c1ccc(NN=C2c3cccnc3-c3ncccc32)cc1,1.4595,244.962,360.7823026,0.678974546
XEFQEH,CCn1c2ccccc2c2c([N+](=O)[O-])c3c(c([N+](=O)[O-])c21)c1cc(C=O)ccc1n3CC,1.4765,328.453,483.7589511,0.678960047
CABWAE,O=C1C=Cc2ccccc2/C1=N/Nc1ccccc1[N+](=O)[O-],1.4448,228.711,336.8554239,0.678958935
EBOJUD,O=C1OC(c2ccccc2)=C(C(=O)c2ccccc2)/C1=N/Nc1ccc([N+](=O)[O-])cc1[N+](=O)[O-],1.4913,346.3,510.0905416,0.678899081
LIDTAU,O=C1/C(=C/c2cccc([N+](=O)[O-])c2)CCC/C1=C\c1cccc([N+](=O)[O-])c1,1.4377,285.475,420.5566484,0.678802727
LAGGAE,O=[N+]([O-])c1ccc(/N=C/c2ccccc2O)cc1,1.4325,190.46,280.6143229,0.678725156
TEHKIC,COc1ccc(/C=N/c2cc([N+](=O)[O-])cc([N+](=O)[O-])c2)c(O)c1,1.4991,238.379,351.2225882,0.678712042
JENZAG,O=[N+]([O-])c1ccc2oc(-c3ccccc3)nc2c1,1.4626,184.966,272.5508198,0.678647748
EVIXEM,CC(=O)Nc1nc([N+](=O)[O-])n[nH]1,1.5754,122.35,180.2892981,0.678631518
IZIPUD,C/C(=N\Nc1ccc([N+](=O)[O-])cc1[N+](=O)[O-])c1ccc(O)cc1,1.4894,239.143,352.4128681,0.678587593
TEBCAE,O=[N+]([O-])[C@]12[C@H]3C[C@@H]4[C@H]5[C@@H]6[C@@H]([C@H]1C[C@@H]6[C@@]42[N+](=O)[O-])[C@@]35[N+](=O)[O-],1.6255,203.156,299.3930373,0.678559534
EVIWEM,O=C(O)C(Cc1c[nH]c2ccccc12)N1C(=O)c2cccc([N+](=O)[O-])c2C1=O,1.4993,284.887,419.8632499,0.678523305
SABBOO,Cc1ccc(C=O)cc1[N+](=O)[O-],1.4342,129.651,191.0958933,0.67846042
VOXPIH,O=[N+]([O-])c1cccc(/N=C/c2ccccc2O)c1,1.4249,191.379,282.1110376,0.678381823
ISAYAC02,Cc1c([N+](=O)[O-])cc(N)cc1[N+](=O)[O-],1.5216,145.881,215.043832,0.678377979
SORBUW,O=[N+]([O-])c1ccc(-n2cccc2)cc1,1.4281,148.328,218.6752144,0.678302753
NATHAS,COc1cccc(/C(C)=N/Nc2c([N+](=O)[O-])cc([N+](=O)[O-])cc2[N+](=O)[O-])c1,1.5166,278.561,410.6951966,0.678267003
SAPGAS,CCOC(=O)c1cc([N+](=O)[O-])cc([N+](=O)[O-])c1O,1.5604,184.807,272.4741411,0.678255189
QEBWUP,O=C(Nc1ccccc1[N+](=O)[O-])ON1C(=O)CCC1=O,1.5381,204.34,301.2736451,0.678253818
MUFJOO,O=Cc1c(Oc2ccc([N+](=O)[O-])cc2[N+](=O)[O-])ccc2ccccc12,1.4943,254.798,375.6757567,0.678239134
OKAQID,COC(=O)c1c(N)oc(C#N)c1C(=O)c1cccc([N+](=O)[O-])c1,1.492,237.799,350.6505319,0.678165234
PAHBEG,O=[N+]([O-])c1ccc(/C=N/CC/N=C/c2ccc([N+](=O)[O-])cc2)cc1,1.4319,256.466,378.1857386,0.678148258
SECJER,Cc1ccc(C(=O)Oc2c([N+](=O)[O-])cc([N+](=O)[O-])cc2[N+](=O)[O-])cc1,1.5415,253.518,373.8520298,0.678123909
PNOIZD,O=[N+]([O-])c1cccc2c(-c3ccccc3)c[nH]c12,1.4217,188.548,278.0798074,0.678035567
TAXDUU,O=[N+]([O-])OCc1cc(-c2cc(CO[N+](=O)[O-])on2)no1,1.6082,200.225,295.3379094,0.677952249
HENKIU01,CC(=O)C(=NNc1ccc([N+](=O)[O-])cc1)C(C)=O,1.4521,193.096,284.8384214,0.677914163
YORYEJ,CC(CNC=O)([N+](=O)[O-])[N+](=O)[O-],1.5542,128.227,189.1585702,0.677880996
IJUKEE,O=C(N/N=C/c1ccc(O)c([N+](=O)[O-])c1)c1ccc(O)cc1,1.4839,228.378,336.9207001,0.677839028
GAXGOE,COC(=O)c1cnc(-c2ccc([N+](=O)[O-])cc2)nc1C,1.4767,208.151,307.0821911,0.677834814
LESLIG,COC(=O)c1cc(NC(=O)c2ccc([N+](=O)[O-])cc2)c(O)cc1O,1.5078,247.878,365.7157627,0.677788669
JACYOB,NC(=O)c1cccc([N+](=O)[O-])c1,1.4733,126.841,187.146162,0.677764367
VINDAX,COc1ccc(Nc2c([N+](=O)[O-])cc([N+](=O)[O-])cc2[N+](=O)[O-])cc1,1.5398,244.169,360.262143,0.677753699
SULROG,O=C(Cn1ccnc1[N+](=O)[O-])NCCO,1.5132,159.213,234.9226687,0.677725147
DELZEZ,C[C@@]1([N+](=O)[O-])C(=O)[C@](O)(c2ccccc2)C=C([N+](=O)[O-])[C@H]1[N+](=O)[O-],1.545,245.501,362.2737168,0.677667158
TNFLUO,O=C1c2cc([N+](=O)[O-])ccc2-c2c1cc([N+](=O)[O-])cc2[N+](=O)[O-],1.6646,222.367,545.0046685,0.677540325
ONITAN02,Nc1ccccc1[N+](=O)[O-],1.4593,106.431,157.0849622,0.677537802
MATCUF,CN(c1ccc([N+](=O)[O-])cc1)c1nc(=O)n(C)c(=O)n1C,1.4932,219.311,323.731094,0.677448055
JORBUN,CC(C)([N+](=O)[O-])C(C)([N+](=O)[O-])[N+](=O)[O-],1.5522,150.059,221.5086932,0.677440681
XOKKOY,COc1ccc(/C=N/c2cccc([N+](=O)[O-])c2)c(O)c1,1.446,211.671,312.4588944,0.677436309
HUFCOB,Cc1oncc1C(=O)N/N=C/c1cccc([N+](=O)[O-])c1,1.4724,209.391,309.1014548,0.677418358
CADFAO,COc1ccc2ccc3oc([N+](=O)[O-])cc3c2c1,1.4746,185.414,273.7108869,0.677408203
TAPMIH,O=[N+]([O-])c1ccc(Oc2ccc(O)cc2)cc1,1.4598,178.038,262.8352334,0.677374938
JOTFAZ,CCC(=O)N1CN(C(=O)CC)C2C1N([N+](=O)[O-])CN([N+](=O)[O-])CN2[N+](=O)[O-],1.5793,277.859,410.2077982,0.677361574
SUBWIV,N#CC(C#N)=NNc1ccc([N+](=O)[O-])cc1,1.4332,168.766,249.1645306,0.677327546
MUJKEH,O=C(N/N=C/c1cccc([N+](=O)[O-])c1)c1ccncc1,1.4451,210.201,310.3501674,0.67730268
MUZNEC,Cc1n[nH]nc1[N+](=O)[O-],1.5418,93.388,137.8987587,0.677221469
RUJJEM,O=C(N/N=C/c1cc(O)ccc1[N+](=O)[O-])c1cc2ccccc2cc1O,1.4729,268.058,395.8263394,0.677211123
OXISEV,C=Cn1cnc([N+](=O)[O-])n1,1.5032,104.759,154.6963186,0.677191293
FIQSIJ,COc1ccc(Cn2cc(CNC(=O)c3ccc([N+](=O)[O-])o3)nn2)cc1[N+](=O)[O-],1.5271,296.066,437.2435558,0.677119185
ZUHQUO,C[C@]12C[C@@]1(C)N([N+](=O)[O-])C(=O)N2[N+](=O)[O-],1.5749,154.246,227.8060504,0.677093518
GUFLUO,CC(=O)/C(C#N)=N/Nc1ccccc1[N+](=O)[O-],1.4422,180.866,267.201663,0.6768895
TAFMEV,COc1ccc(Nc2ncccn2)c([N+](=O)[O-])c1,1.475,187.523,277.0390691,0.676882869
NIKTEH,O=[N+]([O-])c1cccc(-c2nc3ccccc3nc2-c2cccc([N+](=O)[O-])c2)c1,1.4716,284.191,419.873451,0.676849177
UZEWON,C[C@H]1CN([N+](=O)[O-])C(C([N+](=O)[O-])([N+](=O)[O-])[N+](=O)[O-])=N1,1.6678,187.368,276.8244606,0.676847702
YEWBIM,Cc1cc(C)c2ccc3ccccc3c2c1[N+](=O)[O-],1.3863,203.577,300.7774221,0.676836042
YEYFEO,COc1ccc(/C=C/C(=O)c2cccc([N+](=O)[O-])c2)cc1,1.4057,226.321,334.4170525,0.676762738
PAYBAV,CCn1c2ccccc2n2c(=O)c([N+](=O)[O-])cnc12,1.4878,194.908,288.0493527,0.676647936
BOQJAS,Cc1cn(-c2ccc([N+](=O)[O-])cc2[N+](=O)[O-])nc1-c1ccccc1O,1.4868,256.999,379.8346286,0.676607609
PICGUF,O=C(/C=C/c1ccc2c(c1)OCO2)c1cccc([N+](=O)[O-])c1,1.4582,228.876,338.2965419,0.676554359
YOPKAS,CN(c1[n-]c(N(C)[N+](=O)[O-])c([N+](=O)[O-])[n+](=O)c1[N+](=O)[O-])[N+](=O)[O-],1.6768,223.774,330.7986641,0.676465852
BUNCIW,CC1(C)C(=O)[C@@](C)([N+](=O)[O-])C([N+](=O)[O-])=C([N+](=O)[O-])[C@@]1(C)[N+](=O)[O-],1.5751,236.781,350.085421,0.676352072
TOGZEW,O=[N+]([O-])c1[n-]o[n+](=O)c1CCCCCCc1c([N+](=O)[O-])[n-]o[n+]1=O,1.5626,247.287,365.6504549,0.676293429
JEHNUF,O=C(Oc1ccccn1)c1ccc([N+](=O)[O-])cc1,1.4643,187.163,276.7648598,0.676252759
DEPVUP,O=[N+]([O-])O[C@H]1C[C@@H]2c3ccccc3[C@H]1[C@@H]2O[N+](=O)[O-],1.543,193.632,286.3312269,0.676251773
FINVEG,O=[N+]([O-])c1ccc(-c2ncncc2Nc2ccccc2)o1,1.4622,216.58,320.3489447,0.676075272
HACLEE,O=c1c([N+](=O)[O-])ccc2n1C[C@H]1CNC[C@@H]2C1,1.5038,175.508,259.6089274,0.67604763
HEPFOX,O=C1c2ccccc2C(=O)C1C1C([N+](=O)[O-])=CNc2ncnn21,1.5191,229.873,340.0403479,0.676016836
ACENIH,CC(=O)OCN(CN(CN(COC(C)=O)[N+](=O)[O-])[N+](=O)[O-])[N+](=O)[O-],1.5854,250.715,370.8720195,0.67601487
SAJYAD,O=[N+]([O-])c1cccc(/N=N/c2ccc(O)cn2)c1,1.4695,186.432,275.7981887,0.675972532
IYAWEK,CC(=N\O)/C(C)=N/Nc1ccc([N+](=O)[O-])cc1[N+](=O)[O-],1.502,210.054,310.75555,0.675946093
VAJXOW,COC(=O)/C(=C/c1ccccc1[N+](=O)[O-])Cn1cnnn1,1.4736,220.192,325.7655273,0.675921734
WAPGEZ,O=[N+]([O-])c1cc([N+](=O)[O-])c2ccccc2c1N1CCCC1,1.48,217.719,322.123419,0.675886903
CEKVOD,O=[N+]([O-])c1ccccc1N/N=C/c1ccccc1,1.4057,192.486,284.8018505,0.675859373
HOFBIO,C/C(=C\c1ccc([N+](=O)[O-])cc1)C(=O)O,1.4346,161.983,239.6713187,0.675854753
OXINEQ,N#Cc1c(O)nc2c(c1C#N)CCCCC2([N+](=O)[O-])[N+](=O)[O-],1.5095,225.306,333.3965205,0.675789896
ROHBAR,O=C(N/N=C/c1ccc([N+](=O)[O-])cc1)c1ccncc1,1.4401,210.454,311.4276973,0.675771622
XETJIR,COc1c(-n2ccnn2)cc([N+](=O)[O-])cc1[N+](=O)[O-],1.5424,192.828,285.3561069,0.675745132
LUKFIH,Cc1c(-c2c([N+](=O)[O-])cc([N+](=O)[O-])c3[n-]o[n+](=O)c23)c2ccccc2n1Cc1ccccc1,1.5005,332.864,492.5936478,0.6757375
MUFKUV,O=[N+]([O-])c1ccc(Oc2ccc3ccccc3c2)c([N+](=O)[O-])c1,1.479,235.244,348.1297687,0.675736525
XARYOE,O=[N+]([O-])[C@]12c3[n-]o[n+](=O)c3[C@H]3C(=[N+]([O-])O[C@H]4C=CC[C@@H]34)[C@H]1[C@@H]1C=C[C@H]2C1,1.551,259.054,383.3955315,0.67568341
KERSIK,COc1cccc(/C=N/Nc2ccc([N+](=O)[O-])cc2[N+](=O)[O-])c1OCCOc1ccc([N+](=O)[O-])cc1[N+](=O)[O-],1.5275,398.191,589.3399882,0.675655832
WORZUY,CC1(C)OC(=O)C(=Cc2ccc([N+](=O)[O-])cc2)C(=O)O1,1.4817,209.792,310.5106112,0.675635525
YUQFEX,O=[N+]([O-])c1ccc([C@@H](O)Nc2ncccn2)c([N+](=O)[O-])c1,1.5252,214.089,316.8993232,0.675574179
YELPUD,CCOC(=O)C(=O)c1cnoc1-c1ccc([N+](=O)[O-])cc1,1.4856,219.029,324.2215154,0.675553563
EYUCUZ,O=C1OCC2=C1C(c1ccc([N+](=O)[O-])cc1)c1c(ccc3nccnc13)N2,1.4971,269.823,399.4112422,0.675551841
NNFPRO,O=C(/C=C/c1ccc([N+](=O)[O-])o1)c1ccc2ccccc2c1,1.4209,231.374,342.5083132,0.675528129
HOZBII,O=C(N/N=C/c1ccc([N+](=O)[O-])cc1)c1ccc(O)cc1,1.45,220.541,326.4796356,0.675512271
IZISOB,O=C(C(=O)c1c(-c2cccc([N+](=O)[O-])c2)nc2ccccn12)c1ccccc1,1.4389,289.295,428.2667734,0.675501855
KADZEU,O=C(Nc1ccc([N+](=O)[O-])cc1)c1ccccc1O,1.4617,198.019,293.1799772,0.675417884
CIRLEX,CN(C)c1ccc(/C=C/c2[nH]cnc2[N+](=O)[O-])cc1,1.4067,205.792,304.6991175,0.675394145
WIQDIJ,N#CCc1ccc([N+](=O)[O-])cc1,1.3803,131.654,194.9492757,0.675324386
UMAXIR,COc1ccc(OC)c(/C(C)=N/OC(=O)c2ccc([N+](=O)[O-])cc2)c1,1.4385,268.236,397.2289528,0.675267999
LIBMUF,COc1ccc(/C(C)=N/NC(=O)c2ccc([N+](=O)[O-])cc2)c(O)c1,1.4515,254.245,376.5107846,0.675266182
BOWCUM,O=C1c2ccccc2C(=O)C12C(c1cccc([N+](=O)[O-])c1)C21C(=O)c2ccccc2C1=O,1.4598,324.983,481.2694624,0.675262042
PESFOJ,COc1cc(/C=N/NC(=O)c2ccncc2)ccc1OCc1ccc([N+](=O)[O-])cc1,1.44,316.24,468.3442301,0.675229841
XUCJEM,Cn1cnc([N+](=O)[O-])c1,1.483,96.042,142.2519189,0.675154337
ZACNEZ,CC(=O)Nc1ccc(NC(C)=O)c([N+](=O)[O-])c1[N+](=O)[O-],1.5229,207.628,307.5637878,0.675072971
YOKJOY,Cc1cc(C)n(-c2nnc(Nc3c([N+](=O)[O-])cc([N+](=O)[O-])cc3[N+](=O)[O-])nn2)n1,1.5652,287.957,426.5854336,0.675027737
QAGPIB,COc1ccc(NC(=O)CCCC(=O)O)c([N+](=O)[O-])c1,1.4745,214.419,317.6877993,0.674936212
VOFBID,O=C(Nc1ccc(O)cc1)c1ccccc1[N+](=O)[O-],1.455,198.788,294.5300156,0.674932908
PNFPRO,O=C(/C=C/c1ccc([N+](=O)[O-])o1)c1ccccc1,1.4238,191.324,283.4766638,0.674919754
MAMLEU,O=C(/C=C/c1ccc([N+](=O)[O-])cc1)c1cccc(O)c1,1.4167,212.864,315.39187,0.674919109
ZOWDIY,CN(c1cccc([N+](=O)[O-])c1)c1nnn[nH]1,1.4931,165.183,244.7590199,0.674880134
JOTVAS,O=C(N/N=C/c1cccc2ccccc12)c1ccc([N+](=O)[O-])cc1,1.4197,251.889,373.2410403,0.674869515
ENPROP,CCOC(=O)[C@H]([C@H](O[N+](=O)[O-])c1ccc([N+](=O)[O-])cc1)[N+](=O)[O-],1.5447,238.72,353.738362,0.674849057
JAXTAE,O=[N+]([O-])c1cccc(/C=N/N=C/c2cccc([N+](=O)[O-])c2)c1,1.4461,230.983,342.2829555,0.674830564
NOHTAZ,C[C@H]1N([N+](=O)[O-])[C@@H](C)N([N+](=O)[O-])[C@@H](C)N1[N+](=O)[O-],1.5803,187.265,277.5006584,0.674827228
XOCDID,O=C1CC(C(O)c2cccc([N+](=O)[O-])c2)CO1,1.4808,179.393,265.848202,0.674794859
HUFFEU,O=C(c1ccccc1)N1CC([N+](=O)[O-])([N+](=O)[O-])C1,1.5026,187.202,277.4528406,0.674716466
HOKLEA,CCN1C(=O)c2cccc3c(Oc4ccc([N+](=O)[O-])cc4)ccc(c23)C1=O,1.4629,277.317,411.0240651,0.674697721
WAKSIM,COc1ccc(-c2c([N+](=O)[O-])c3ccccn3c2C#N)cc1,1.43,229.624,340.3417598,0.674686527
VOXJAW,O=[N+]([O-])OCCc1cc(-c2cc(CCO[N+](=O)[O-])on2)no1,1.5636,225.027,333.5323631,0.674678157
AQAFEF,CCOC(=O)c1[nH]nc(C(=O)c2ccccc2)c1-c1cccc([N+](=O)[O-])c1,1.4509,281.926,417.8696008,0.674674586
DNTDPH,O=[N+]([O-])c1ccc(-c2ccc([N+](=O)[O-])cc2)cc1,1.4528,188.185,278.955661,0.674605417
VONPIA,O=C(NC1=C([N+](=O)[O-])C(=O)c2ccccc2C1=O)c1ccccc1,1.4726,244.997,363.1747439,0.674598121
WOGNUB,CC1=NN(c2ccc([N+](=O)[O-])cc2[N+](=O)[O-])C(=O)C1,1.524,194.089,287.7168956,0.674583255
DAYSIG,O=[N+]([O-])c1ccc(N/N=C/c2cccc(OCc3ccccc3)c2)c([N+](=O)[O-])c1,1.4419,304.619,451.5856182,0.674554255
NOPHKN,O=C(c1ccc([N+](=O)[O-])cc1)c1ccc([N+](=O)[O-])cc1,1.4725,206.946,306.7946618,0.674542376
DEWBOW,O=C1c2cc([N+](=O)[O-])ccc2N[C@H](O)[C@@H]2CCCN12,1.5059,195.695,290.1177104,0.674536552
JULHED,O=[N+]([O-])c1ccccc1/C=N/N=C/c1ccccc1[N+](=O)[O-],1.4495,230.337,341.4800842,0.674525428
UGOQOX,O=C(c1ccc([N+](=O)[O-])cc1)C1CC2(CCOC2=O)ON1c1ccccc1,1.4734,279.839,414.8691793,0.674523474
CILBII,CO[C@@H]1O[C@H](CO[N+](=O)[O-])[C@@H](O[N+](=O)[O-])[C@H](O[N+](=O)[O-])[C@H]1O[N+](=O)[O-],1.6716,250.624,371.5581085,0.674521681
YISYOO,N#CC1=C(C2CC2)C[C@H](c2ccccc2[N+](=O)[O-])C(C#N)=C1N,1.3882,246.984,366.1785395,0.674490647
HOFFOX,CC[C@]1(c2ccc([N+](=O)[O-])cc2[N+](=O)[O-])CCC(=O)NC1=O,1.5022,228.954,339.4606381,0.674464059
NIWROB03,O=C1N[C@@H](c2cccc([N+](=O)[O-])c2)Nc2ccccc21,1.4626,206.05,305.5068484,0.674452966
FUWNIU,O=C(NCCO[N+](=O)[O-])c1cccnc1,1.4767,160.074,237.3434571,0.674440332
XISKAM,O=[N+]([O-])c1ccc(OCn2cncn2)cc1,1.4838,166.088,246.2805219,0.674385448
QOKSUH,O=[N+]([O-])c1c(-c2ccccc2)cc(O)c2ccncc12,1.4371,207.33,307.4486239,0.674356572
TAPSAH,O=C1CCCC2=C1C(c1ccccc1[N+](=O)[O-])C1C(=O)CCCC1(O)O2,1.4718,271.718,402.9321421,0.674351762
PODNUU,O=[N+]([O-])c1ccc(C2=Nc3ccccc3N=C(c3ccccc3O)C2)cc1,1.4325,279.142,413.9749344,0.674296864
ABENUQ,O=[N+]([O-])c1nccn1[C@H]1O[C@H](CO)[C@@H](O)[C@@H]1O,1.5644,175.406,260.1346089,0.674289364
PUFMEJ,O=[N+]([O-])c1ccccc1N/N=C/c1ccco1,1.4511,178.296,264.4239045,0.674280944
NUPMES,O=[N+]([O-])c1ccc(/N=C/c2ccccn2)cc1,1.4106,180.229,267.3128972,0.674224858
QOTSUO,Cc1c(CO)cc([N+](=O)[O-])cc1CO,1.4426,152.936,226.8490658,0.674175137
HAKHUY,O=c1oc2ccccc2c(O)c1C(c1ccccc1[N+](=O)[O-])c1c(O)c2ccccc2oc1=O,1.4995,341.237,506.1865022,0.67413295
YUJXUX,O=[N+]([O-])CC1(O)C2OCC(O[N+](=O)[O-])C2OC1C1(O)COC2C(O[N+](=O)[O-])COC21,1.6483,298.198,442.3475031,0.674126107
JAQTOK,O=C1c2ccccc2-c2nnc(-c3ccccc3[N+](=O)[O-])cc21,1.4521,233.63,346.579938,0.674101338
CACNEA,C=C(OC(=O)c1ccc([N+](=O)[O-])cc1)C(=O)OC,1.4697,191.206,283.6510746,0.674088756
OGENIY01,O=C(Nc1cccc2cccnc12)c1cccc([N+](=O)[O-])c1,1.4362,228.407,338.8725222,0.674020421
VABYEE,O=C(N/N=C/c1ccc(O)cc1)c1ccc([N+](=O)[O-])cc1,1.4463,220.612,327.3148528,0.674005466
VAFCIP,CC1=C(CO[N+](=O)[O-])C(=O)c2ccccc2C1=O,1.4706,188.019,278.966428,0.673984326
IJUKII,O=C(N/N=C/c1ccc(O)c([N+](=O)[O-])c1)c1ccccc1O,1.4796,227.732,337.899856,0.673962998
RAYXUK,COc1cc(=O)c2cc([N+](=O)[O-])ccc2[nH]c1=O,1.5055,184.385,273.5973029,0.673928427
ZEJWUJ,CCOC(=O)/C(=C1/C(=O)N(C)c2ccccc21)[N+](=O)[O-],1.4604,211.559,313.9205125,0.673925378
NAWQEH,O=[N+]([O-])c1cc([N+](=O)[O-])c(N2CCCCC2)c([N+](=O)[O-])c1,1.5285,216.769,321.6639064,0.673899047
XIRQUM,COC(=O)[C@@H]1ON=C(c2ccc([N+](=O)[O-])cc2)[C@H]1C(=O)OC,1.4943,230.702,342.3488101,0.673879953
AFOPUI,Cc1c(/N=C/c2cc([N+](=O)[O-])ccc2O)cccc1[N+](=O)[O-],1.4685,229.421,340.4539509,0.673867933
RAQSEI,CCOC1=CC(c2ccco2)C2([N+](=O)[O-])c3[n-]o[n+](=O)c3-c3[n-]o[n+](=O)c3C2C1,1.5652,288.17,427.6441927,0.673854585
KUPCIJ,O=C(N[N+](=O)[O-])OCCC([N+](=O)[O-])([N+](=O)[O-])[N+](=O)[O-],1.6985,186.447,276.6887529,0.673851026
WILBEY,O=[N+]([O-])c1c(-c2ccccc2)n[nH]c1-c1ccccc1,1.4134,209.856,311.4478288,0.673807876
DOZPAL,COC(=O)c1cnc2cccc([N+](=O)[O-])c2c1,1.4681,176.83,262.475025,0.673702193
SECVON,COC(=O)/C(C#N)=C/c1cc2c(cc1[N+](=O)[O-])OCO2,1.5021,205.585,305.165498,0.673683628
JORCAU,CCC([N+](=O)[O-])([N+](=O)[O-])C(C)(C)[N+](=O)[O-],1.5202,162.681,241.4815038,0.673678925
SIKGIC,COc1cc([N+](=O)[O-])c2c([N+](=O)[O-])c3n(c(=O)c2c1OC)CCc1cc2c(cc1-3)OCO2,1.5507,318.195,472.3407653,0.673655597
HUMHEC,C/C(=N\Nc1ccc([N+](=O)[O-])cc1[N+](=O)[O-])c1ccccc1,1.4552,230.673,342.4426681,0.673610568
SUDFOM,O=c1[nH]cnc2c1[C@@H](c1ccccc1)[C@H]([N+](=O)[O-])O2,1.5006,193.11,286.6812496,0.673605268
CIJBAA,O=[N+]([O-])c1ccc2nc(-c3ccccc3[N+](=O)[O-])nc(-c3ccccc3)c2c1,1.4559,285.871,424.4012436,0.673586622
YUNXOU,O=[N+]([O-])c1ccc(CCc2ccc([N+](=O)[O-])cc2)cc1,1.4241,213.699,317.263929,0.673568536
HOBRUN,O=C1C(c2ccccc2[N+](=O)[O-])=C(c2ccccc2[N+](=O)[O-])C(=O)c2ccccc21,1.4665,305.14,453.0211195,0.673566831
HIZBUQ,O=[N+]([O-])c1ccc(NC(Nc2ccc([N+](=O)[O-])cc2)c2ccccn2)cc1,1.4458,282.453,419.356521,0.673539067
ZORYIO,O=C(OC1CCC(=O)C2C3C=CC(C3)C12)c1cc([N+](=O)[O-])cc([N+](=O)[O-])c1,1.5003,277.397,411.8524322,0.673534932
WUVXIU,O=[N+]([O-])c1ccc2c(c1)OC[C@@H]1OCCN21,1.5179,163.626,242.9406237,0.673522598
CAFQUW,Nc1ccn(-c2c([N+](=O)[O-])cc([N+](=O)[O-])cc2[N+](=O)[O-])c(=O)n1,1.5908,226.408,336.1595927,0.673513429
PNOIZB,O=[N+]([O-])c1cccn2cc(-c3ccccc3)cc12,1.4052,189.488,281.3450485,0.673507499
CEGVOB,COc1ccc(C(=O)Nc2ccc(OC)cc2[N+](=O)[O-])cc1,1.4471,233.467,346.6595985,0.673476232
KEPGOB,C/C(=N\Nc1ccc([N+](=O)[O-])cc1[N+](=O)[O-])c1ccc(C2CC2)cc1,1.4396,264.213,392.3301942,0.67344549
LITKOR,O=[N+]([O-])c1cc(N2CCOCC2)on1,1.5336,145.156,215.5437423,0.673441031
WODKEH,CCCN/C=C(/C1C([N+](=O)[O-])=CN(CCC)C=C1[N+](=O)[O-])[N+](=O)[O-],1.4698,259.554,385.4172986,0.673436301
KUHKAB,CNC1=C([N+](=O)[O-])[C@@H](C(C#N)C#N)c2ccccc2O1,1.4345,210.538,312.6434485,0.67341248
EROHUP,COc1ccc(C=O)cc1OCc1ccc([N+](=O)[O-])cc1,1.4287,224.688,333.6767733,0.673370213
BEKDAW,CCOC(=O)[C@@]1(C#N)[C@H](c2ccc([N+](=O)[O-])cc2)C1(C#N)C#N,1.4095,245.984,365.3086784,0.673359311
TIJROU,CC(=O)C(=NNc1ccccc1[N+](=O)[O-])C(C)=O,1.4416,193.191,286.9130631,0.673343339
MNIPZN,Cc1ccc(N/N=C2\C(=O)C=Cc3ccccc32)c([N+](=O)[O-])c1,1.4276,240.528,357.2170811,0.673338462
TOTWOQ,O=C1c2cccc3cc([N+](=O)[O-])cc(c23)C(=O)N1Cc1ccccn1,1.4685,253.598,376.6457417,0.673306431
CIJYIE,Cc1nc([N+](=O)[O-])c(C#N)[nH]1,1.4764,115.135,171.001562,0.673297943