name,smiles,Density,Vint,Veff,pc
PELKEY,CN(C)CCNc1cc(NCCN(C)C)c([N+](=O)[O-])cc1[N+](=O)[O-],1.2821,265.209,440.6151711,0.601906192
VIQWUO,CC1(C)[C@H]2CC[C@]1(C)C(=O)/C2=N/c1cccc([N+](=O)[O-])c1,1.2542,228.019,378.84737,0.601875631
LOJBIV,CCCCCNc1ccc([N+](=O)[O-])cc1,1.2166,170.956,284.0753146,0.601798154
RUVNIH,CN1C(=O)C2C(c3ccccc3)C([N+](=O)[O-])C(c3ccccc3)N2C1C(C)(C)C,1.2388,317.2,527.0880081,0.601797034
POLZAR,CC1(C)CCCC2(C)C3CCC12CC3OC(=O)c1ccc([N+](=O)[O-])cc1,1.2552,284.376,472.5592497,0.601778507
SOKHAB,CC(=O)OCC1OC(C[N+](=O)[O-])C(OC(C)=O)C(OC(C)=O)C1OC(C)=O,1.35,289.504,481.0960677,0.601759232
BOBSAP,CC(C)(C)OC(=O)C1C2CC(c3ccc([N+](=O)[O-])cc3C2=O)C12C(=O)N(C(=O)OC(C)(C)C)c1ccccc12,1.2935,412.672,685.8081782,0.60173094
DOWGUR,C[C@H]([C@H]1CC(c2ccc([N+](=O)[O-])cc2)=NO1)C(C)(C)C,1.2324,223.833,372.0953911,0.60154736
IGEDIJ,CC1CC2Oc3cccc([N+](=O)[O-])c3C/C=C\C2N1C(=O)OC(C)(C)C,1.2745,282.278,469.2788131,0.601514477
GAKJOR,CC1COC(OC(=O)c2ccc([N+](=O)[O-])cc2)C(C)(C)C1,1.2696,230.621,383.4007337,0.601514238
PIMVIT,COC(=O)C1=C(C(=O)OC)N(c2ccc(C(C)C)cc2)C(N)=C(C#N)C1c1cccc([N+](=O)[O-])c1,1.2729,373.611,621.2013606,0.601433003
PUHPIU,COC(=O)CC1c2ccccc2CN2C=CC3C4=C(CC(C)(C)CC4=O)N(c4ccc(C)cc4)C2C31[N+](=O)[O-],1.2703,414.504,689.237267,0.601395223
KEWZUJ,CCC(C1OCCO1)C(C[N+](=O)[O-])c1ccccc1,1.2505,211.739,352.0809406,0.601392963
XAGWOR,COC1CCC2CCN1CC2C#Cc1ccc([N+](=O)[O-])cc1,1.2482,240.133,399.3148213,0.601362602
TEYMAN,CC1(C)CC(=O)C2=C(C1)NC(c1ccccc1)=C(c1ccccc1)C2c1ccc([N+](=O)[O-])cc1,1.2388,362.909,603.4813735,0.601359074
WAVJOV,CCCC(Nc1c(C)cc(C)cc1C)(C(=O)OCC)C(O)c1ccc([N+](=O)[O-])cc1,1.2335,335.286,557.6377891,0.60126126
PAWGUR,CC(C)(Cc1c[nH]c2ccccc12)[N+](=O)[O-],1.2397,175.633,292.1561985,0.6011613
NELKEX,CC12CCCC3(CCCCC13)c1cc(OCc3ccc([N+](=O)[O-])cc3)ccc1C2,1.2474,313.048,520.8042356,0.601085741
TUDXEW,C=C/C(C)=C\CC1(C)C(C)CCCC1OC(=O)c1cc([N+](=O)[O-])cc([N+](=O)[O-])c1,1.2537,320.2,532.7100511,0.601077452
KASQEA,CC(=O)N(C)C1C(c2ccc(C)cc2)N(C)C(c2ccc(C)cc2)C1[N+](=O)[O-],1.2246,310.699,516.9275064,0.601049463
ERSTNB,COc1c2c(c(CCCOC(=O)c3ccc([N+](=O)[O-])cc3)c3c1C=CC(C)(C)O3)OC(C)(C)C=C2,1.2675,377.28,627.810828,0.600945354
NACGAB,O=[N+]([O-])CC1c2ccccc2OC2C1CCCN2c1ccccc1Cc1ccccc1,1.2466,331.5,551.7496594,0.600815958
CIRTUV,CCCCC1CC2CC=CCC2C1COC(=O)c1cc([N+](=O)[O-])cc([N+](=O)[O-])c1,1.2785,313.84,522.3766845,0.600792511
ACALIZ,CCc1cccc(CC)c1NC(=O)c1ccc([N+](=O)[O-])cc1,1.2381,240.236,399.8688082,0.600787046
ABURIY,O=C(OCC1/C=C/C/C=C\CC/C=C/CC1)c1ccc([N+](=O)[O-])cc1,1.2213,278.65,463.8784847,0.600696107
DUGXOS,CC(=O)OCC1OC(Nc2cc(C)c(C)cc2[N+](=O)[O-])C2OC(C)(C)OC12,1.3051,290.554,483.7107945,0.600677106
YUQZUG,CC(=N\NC(=O)c1oc2ccccc2c1C)/C(=N\Nc1ccc([N+](=O)[O-])cc1)N1CCCCC1,1.2747,361.671,602.1274805,0.600655196
ADAMIB,COc1ccc([N+](=O)[O-])c(C2(C(=O)OC3CCCCC3c3ccccc3)CCN(C)C2)c1,1.2565,347.798,579.1489159,0.600532938
KIZLAG,O=[N+]([O-])c1ccccc1C1COCCN2CCOCCOCCN(CCOCCOCC2)CCO1,1.2772,388.228,646.549273,0.600461583
DAGROT,CC1(C)C2CCC13C(C2)OC(=O)N3C(=O)C(O)C(c1ccccc1)[N+](=O)[O-],1.3108,284.604,473.9928396,0.60043945
OFAMUG,CCCCC(C)(/C=C/C(C)c1ccc(OC)c(OC)c1)C/C=N/Nc1ccc([N+](=O)[O-])cc1[N+](=O)[O-],1.2493,397.648,662.2831621,0.600419915
BANSOY,CC(=C=Nc1ccc([N+](=O)[O-])cc1)C(C)(C)Cc1ccccc1,1.1928,257.541,429.0057048,0.600320688
DEGLEH,O=[N+]([O-])c1ccc2c(c1)ncn2CCN1CCCCC1,1.2699,215.188,358.4863577,0.60026831
BIYNUU,CCOC(=O)C1(C#N)C(c2ccc(OC)cc2)NC(c2ccc(OC)cc2)C([N+](=O)[O-])C1c1ccc(OC)cc1,1.2619,430.669,717.4784232,0.600253591
GAHGEC,COC12CCCC1C(c1ccccc1)C1C(c3ccccc3)C([N+](=O)[O-])ON1O2,1.2859,307.077,511.6085601,0.600218651
WILBAU,CC(C)(C)c1n[nH]c(C(C)(C)C)c1[N+](=O)[O-],1.2121,185.123,308.4566581,0.600158872
BEGRIO,C/C1=C\CC(C)(C)/C=C/C(=N\Nc2ccc([N+](=O)[O-])cc2[N+](=O)[O-])/C(C)=C/CC1,1.2392,320.202,533.604979,0.600073111
DEMPEQ,CC1=CC(C)(O)C(=O)C(C)(C)C1[N+](=O)[O-],1.2639,168.002,279.9857895,0.600037596
FACSEH,O=C(OCCCC1CCC(OCc2ccccc2)C2(CCCCO2)O1)c1ccc([N+](=O)[O-])cc1,1.2748,366.705,611.2097686,0.599965869
XERZUS,CC(C)OC(=O)C(O)(/C=C/c1ccccc1)C[N+](=O)[O-],1.2527,221.951,369.9937599,0.599877685
VABJEQ,CCCCC(/C=N/Nc1ccc([N+](=O)[O-])cc1[N+](=O)[O-])=C(/Cc1ccc(C)cc1)c1ccccc1,1.2369,380.29,633.9669161,0.599857801
MEPPUV,CC(C)C1=CC23CC(C)(C)N=C2c2cc([N+](=O)[O-])ccc2NC3(C)CC1=O,1.2534,291.767,486.480801,0.599750287
KIGZEG,COc1ccc(C(C)NC(=O)C(O)(c2ccccc2)C(C[N+](=O)[O-])c2ccccc2)cc1,1.2406,348.502,581.175428,0.599650266
LOPLAF,CC1C(OC(=O)c2ccc([N+](=O)[O-])cc2)C2(C)CCC1(C)C2,1.2544,240.582,401.312185,0.599488401
CAHBIZ,CCC1(C)C=C2C(Nc3ccc(OC)cc3[N+](=O)[O-])CC3C(C)(C(=O)OC)CCCC3(C)C2CC1,1.2365,389.9,650.3988317,0.599478322
PEVYEU,CC(C)Nc1c([N+](=O)[O-])c(NC(C)C)c([N+](=O)[O-])c(NC(C)C)c1[N+](=O)[O-],1.3029,293.515,489.6478789,0.599440971
DUPJAA,CC(C)(C)c1cc(C(C)(C)C)c2oc(=O)c(-c3ccc([N+](=O)[O-])cc3)cc2c1,1.2276,307.447,512.9224355,0.599402519
RUCNOU,COc1ccc2c(c1)CCC1C2CCC2(C)C1CCC2[N+](=O)[O-],1.2454,251.898,420.2614635,0.599384007
DARRAQ,O=C1C[C@@H](c2ccccc2)N1c1ccc([N+](=O)[O-])cc1[N+](=O)[O-],1.4726,222.36,616.06327,0.599371905
OLAVIG,COC1C(C)=CCC2C1CC(OC(=O)c1ccc([N+](=O)[O-])cc1)C2(C)C,1.2549,284.873,475.2913675,0.599364978
MEQVIO,CCc1ccc(CCOc2ccc([N+](=O)[O-])cc2)nc1,1.2462,217.241,362.6030998,0.599115121
FEBJOM01,O=C1CCCCC1C(C[N+](=O)[O-])c1ccccc1,1.2333,199.343,332.7405113,0.599094469
DUVVEW,C=C1CC(C(=O)OC)(C(=O)OC)C(c2ccccc2)C1(C)[N+](=O)[O-],1.2713,260.684,435.1302814,0.599094136
QAHPIZ,O=C(O)/C=C\c1nnc(-c2ccccn2)n1-c1ccc([N+](=O)[O-])cc1,1.2758,262.819,438.7497107,0.599018059
POQQOD,CC12CCC3(Cc4ccc([N+](=O)[O-])cc4)C(C)(OOC3(C)O1)O2,1.3254,241.005,402.3343343,0.599016737
GAGHUS,C=CC(C)CC(C(C)C)N(C(=O)c1cc([N+](=O)[O-])cc([N+](=O)[O-])c1)c1ccc(OC)cc1,1.2476,351.75,587.239572,0.598988925
DEMRAO,O=C1CCC2([N+](=O)[O-])CCCCCC2(O)C1,1.293,174.714,291.6847856,0.598982219
AFEQEK,CC(C)(C)c1cc(Nc2c([N+](=O)[O-])cc([N+](=O)[O-])cc2[N+](=O)[O-])cc(C(C)(C)C)c1O,1.2926,332.505,555.2006554,0.598891584
BUGPIC,Cc1cc(C(C)(C)C)n(-c2ccccc2[N+](=O)[O-])n1,1.224,210.539,351.5643193,0.59886339
USUMEB,Cc1ccc(C(=O)/C=C2/C([N+](=O)[O-])=C3NCCCN3C2(O)c2ccc(C)cc2)cc1,1.2635,318.879,532.5076396,0.598825212
OLIJEY,COC(=O)c1cc(OCC(C)C)c2cccc([N+](=O)[O-])c2n1,1.29,234.401,391.4715453,0.598768934
JUGKII,Cc1c(/N=C2\CCCC3C4CCCN5CCCC(CN23)C45)cccc1[N+](=O)[O-],1.2565,302.454,505.1671759,0.59872061
QANSEG,CC1(C)C2CON(c3ccccc3)C2C(c2ccc([N+](=O)[O-])cc2)ON1c1ccccc1,1.2593,340.416,568.5896856,0.598702383
LIMHOF,CN(C)c1ccc(C2N(C(=O)c3ccc([N+](=O)[O-])cc3)c3ccccc3C2(C)C)cc1,1.2337,334.541,558.8585847,0.598614764
DIJNUG,C=CCC1(C#N)CCC(C)(OC(=O)c2ccc([N+](=O)[O-])cc2)C1C,1.2342,264.269,441.5111937,0.598555606
PADQUJ,Cn1c(N)c([C@@H](C[N+](=O)[O-])c2ccccc2)c(=O)n(C)c1=O,1.2981,232.842,389.0431767,0.598499123
YAZROJ,CCOC(=O)C1=C(C(=O)OCC)N2C(=C(C#N)C1c1ccc([N+](=O)[O-])cc1)NC(=O)C2CCc1ccccc1,1.2826,410.793,686.4315887,0.598447109
LUKFAZ,Cc1ccc(/C=C/C(OCc2ccccc2)c2ccc([N+](=O)[O-])cc2)cc1,1.1962,298.351,498.5855622,0.598394784
QABWOF,CC1(C)OC2OC(C3C([N+](=O)[O-])C(c4ccccc4)ON3Cc3ccccc3)C3OC(C)(C)OC3C2O1,1.294,393.337,657.3305,0.598385439
AWADAG,Cc1ccc2c(c1)OC1C(C2=O)C(O)C(C)C(c2ccccc2)C1[N+](=O)[O-],1.2783,285.386,476.9427834,0.598365276
IGEYUR,COc1ccc([N+](=O)[O-])cc1NC(=O)CCC(=O)O,1.328,200.539,335.2080358,0.598252364
IFIJAL,CC1CCN(Cc2ccc([N+](=O)[O-])cc2)C2OC3=C(C(=O)CC(C)(C)C3)C(c3ccc([N+](=O)[O-])cc3)C12,1.2785,392.543,656.2146789,0.598192958
HEVZOZ,C[C@H](NC(=O)C(C)(C)C)C(=O)Nc1cccc([N+](=O)[O-])c1,1.2534,232.306,388.3710113,0.59815484
YORKOH,CC1=CC2(C)CC(C)CCC2CC1OC(=O)c1cc([N+](=O)[O-])cc([N+](=O)[O-])c1,1.2769,301.908,504.8039805,0.598069769
ZIBWEM,CC(C)(C)C1=CC2=CC=C3C=C(C(C)(C)C)C=C4C([N+](=O)[O-])=C([N+](=O)[O-])C(=C1)C2(C)C34C,1.2365,348.688,583.1513608,0.597937385
UQOHIS,CC1(NC(=O)c2ccccc2)CCOC(c2cccc([N+](=O)[O-])c2)C1,1.2568,268.667,449.4273672,0.597798487
LALYUS,CC(C)(C)C(NC1=C(C(=O)OCc2ccc([N+](=O)[O-])cc2)CCC1)c1ccccc1,1.2248,330.836,553.4495993,0.597770782
JOKYOZ,C/C(=N\c1c(/C(=C/[N+](=O)[O-])c2ccccc2)c(=O)n(C)c(=O)n1C)N(C)C,1.2649,291.268,487.269526,0.59775542
EDETOX,CC12CCC3C4CCC(=O)C=C4CCC3C1CCC2OC(=O)c1ccc([N+](=O)[O-])cc1,1.2668,331.522,554.7627992,0.597592341
TUXSIQ,CCOC(=O)c1ccc(N2OC(C)C=CC2NC(=O)OCc2ccc([N+](=O)[O-])cc2)cc1,1.2876,339.998,568.9497268,0.597588827
LUGGAY,CC1(C)CC2/C(=N/OC(=O)c3ccc([N+](=O)[O-])cc3)CCC3OC3(C)CCC21,1.2498,306.605,513.1200479,0.597530736
RUZNEI,C=CC1COC(c2ccc(OC)c(OC)c2)C1(C(=O)OCC)[N+](=O)[O-],1.2829,271.57,454.508902,0.597502048
EXEPEF,CC(C(c1ccccc1)c1c(-c2ccccc2)[nH]c2ccccc12)[N+](=O)[O-],1.2159,290.625,486.4107285,0.597488877
NEJDAJ,CC(C)(C)OC(=O)N1CC(CCOC(=O)c2ccc([N+](=O)[O-])cc2)C(C)(O)C12COC(C)(C)OC2,1.2851,381.545,638.6370015,0.597436414
MOKLAA,CNC(=O)Oc1cc([N+](=O)[O-])ccc1OC(C)C,1.289,195.564,327.3408106,0.597432381
ITEPOM,COC1OC2COC(C)(C)OC2C2Oc3ccc([N+](=O)[O-])cc3C(=O)NC12,1.3518,278.961,466.9555675,0.597403735
DAWNIY,CC(C)(C)C1=CC([N+](=O)[O-])(C(C)(C)C)C(=O)C(C)([N+](=O)[O-])C1[N+](=O)[O-],1.2941,273.784,458.3025024,0.597387094
YUYQEP,CN(C)C(=Nc1ccc([N+](=O)[O-])cc1)N(C)C,1.2331,189.962,317.9896497,0.597384223
SOSHAL,CC(C)(C)OC(=O)Oc1cc(-c2ccccc2[N+](=O)[O-])cn1C(=O)OC(C)(C)C,1.2693,315.86,528.7523499,0.597368503
FIWZIV,COc1cc(C(C[N+](=O)[O-])C2OC3OC(C)(C)OC3C2OCc2ccccc2)c(OC)c2ccccc12,1.2772,395.46,662.0621424,0.597315531
IPAQEX,COc1cc2c(c([N+](=O)[O-])c1OC)C(O)CC1C2(C)CCC2C(C)(C)CCCC21C,1.2431,332.838,557.3870802,0.597139783
CIGLUB,CC1([N+](=O)[O-])C(/C=C/c2ccccc2)N2CCC(=O)N2C1c1ccccc1,1.2474,288.674,483.4541117,0.597107343
BIXGOE,CC1C(c2ccccc2)OCCN1C1=CCCCC1C(C[N+](=O)[O-])c1ccccc1,1.2159,331.203,554.7975183,0.59697996
VEHTOR,C=C1CCC(C(C)C)C2C1C/C(=N\Nc1ccc([N+](=O)[O-])cc1[N+](=O)[O-])C2CC,1.2407,319.727,535.6576759,0.596886807
FONZEO,Cc1ccc(C(C[N+](=O)[O-])C2N=C3C4CCC(C)(C3OC2=O)C4(C)C)cc1,1.2455,294.585,493.5658617,0.596850437
GIVSIQ,CC(C)c1ccc2ccccc2c1-c1ccccc1/C=C/[N+](=O)[O-],1.1989,262.167,439.2737557,0.596819174
TARDIC,CC(C)C1Oc2cc([N+](=O)[O-])ccc2N(C2CCCCC2)C1=O,1.264,249.399,417.9850504,0.596669665
FULJEB,CC(=O)OC(C)C(C(C)OC(=O)C12CCC(C)(C(=O)O1)C2(C)C)[N+](=O)[O-],1.2831,286.586,480.3561708,0.596611468
ERSTNA,COc1c2c(c(CCCOC(=O)c3cc([N+](=O)[O-])cc([N+](=O)[O-])c3)c3c1C=CC(C)(C)O3)OC(C)(C)C=C2,1.2878,403.255,675.9220727,0.596599839
MIXFOQ,C=C1CCC2C3(C)COC(C)(C)OC3CCC2(C)C1C/C=C1/C(=O)OCC1Oc1ccc([N+](=O)[O-])cc1,1.2538,403.968,677.1362086,0.596583073
KECCOM,CC1=CCC2C(C1C(C)OC(=O)c1ccc([N+](=O)[O-])cc1)C2(C)C,1.2259,265.976,445.882693,0.59651564
ADUSAV,CCOC(=O)C12CCCN1C(/C=C/c1ccccc1OC)C([N+](=O)[O-])C2c1ccc(C)cc1,1.2413,359.231,602.2942181,0.596437736
UCAYOO,CCC(c1ccccc1)C(C(=O)c1ccccc1)C(C[N+](=O)[O-])NC(C)=O,1.2235,298.002,499.7050201,0.596355826
NEWCIC,CCCCCCCc1ccc(-c2ccc([N+](=O)[O-])cc2)cc1,1.1805,249.281,418.0307351,0.596322182
DNPBUB,CC(C)(C)c1cc(C(C)(C)C)c(Oc2ccc([N+](=O)[O-])cc2[N+](=O)[O-])c(C(C)(C)C)c1,1.2159,348.729,584.8512225,0.596269592
QOLZEZ,CC(C)(C)OC(=O)C1=CC2([N+](=O)[O-])Oc3ccccc3C2C1,1.2783,234.76,393.7617015,0.596198155
LUFVAJ,COc1ccc(N(C(=O)OC(C)(C)C)C(c2ccccc2)C(C)C[N+](=O)[O-])cc1,1.2224,324.122,543.6615055,0.596183465
FALLAJ,C=CCNC1=C([N+](=O)[O-])C(=O)C(O)=C(C(C)(C)C)C1C(C)(C)C,1.2125,263.057,441.2597779,0.596149962
KIKGUG,CCC1C(C)CC2C3CCC(OC)(OC)C3CC(OC(=O)c3ccc([N+](=O)[O-])cc3)C12,1.2513,341.15,572.2862993,0.596117713
NELLAU,CC12CCCC3(CCCCC13C)c1cc(OCc3ccc([N+](=O)[O-])cc3)ccc1C2,1.2326,325.426,545.9399578,0.596083865
ZIXZUD,Cc1ncc([N+](=O)[O-])n1CC(C)OC(=O)C(C)c1ccc(CC(C)C)cc1,1.2259,301.334,505.5356714,0.596068719
XULQAZ,CC(C)C(CO)/N=C/c1cc([N+](=O)[O-])ccc1O,1.2544,198.913,333.7496318,0.595994665
DATMIU,CC1(C)CCCC2(C)C(OC(=O)c3ccc([N+](=O)[O-])cc3)CCCC12,1.2335,276.966,464.7176086,0.595987746
BOWDUN,COc1ccc(C(C)N2CCC(C)(O)C([N+](=O)[O-])C2c2ccccc2)cc1,1.2314,297.518,499.2173791,0.595968835
YISFUB,COC(=O)C(C(C)C)N1CCc2c([nH]c3ccccc23)C1c1ccc([N+](=O)[O-])cc1,1.2502,322.325,540.8499368,0.595960132
NHPYOX10,C[C@H]1C[C@H]2CCCCN2[C@@H](c2ccc([N+](=O)[O-])cc2)O1,1.256,217.568,365.1037897,0.595907263
NOHREJ,COC1(COCc2ccccc2)OC(COCc2ccccc2)C2C([N+](=O)[O-])C21,1.2577,314.064,527.0403849,0.595901204
ASUYUI,CC(C)=CC[C@@H]1CC=C[C@H](OC(=O)c2ccc([N+](=O)[O-])cc2)C1(C)C,1.206,281.575,472.5389567,0.595876797
IDOREZ,CC1(C)OCC(C2C3OC(C)(C)OC3CN2C(=O)c2cccc(NC(=O)c3cccc([N+](=O)[O-])c3)c2)O1,1.2924,391.371,656.83317,0.595845365
KOHPEF,CN(/N=C/c1ccccc1[N+](=O)[O-])C(=O)NC(Cc1ccccc1)C(=O)OC(C)(C)C,1.2422,339.459,569.7404968,0.59581336
FIFSOF,CC1=C(c2ccccc2)C(c2ccc(C)cc2)C(C(O)c2ccc([N+](=O)[O-])cc2)C1O,1.2227,335.907,563.87109,0.595715946
UJAVUX,C=C1C=CCC2CCCCC12OC(=O)c1ccc([N+](=O)[O-])cc1,1.2536,247.064,414.7942057,0.595630307
HABZUF,CC(=O)CCC1([N+](=O)[O-])CCCCCCCCCCC1=O,1.1989,245.179,411.6443158,0.595608856
QUFKAF,O=C1CC(c2ccccc2)C([N+](=O)[O-])C2CCCCC12,1.2466,216.62,363.84603,0.595361725
MENPDL,CC(CO)(CO)[N+](=O)[O-],1.3146,101.564,170.5988695,0.59533806
SOGROW,Cc1cccc(C)c1/N=C/c1cc([N+](=O)[O-])ccc1Nc1c(C)cccc1C,1.2061,305.883,513.805731,0.59532812
FONYUD,CC(C)C1C2NC3(C1[N+](=O)[O-])C1CCC(C)(C3OC2=O)C1(C)C,1.2664,251.494,422.4790593,0.595281575
LEGWAX,CCOC(=O)C1(C)CCCC2(C)C1CCC13CC(C)(CCC21)C(=O)C3COCc1ccccc1[N+](=O)[O-],1.2379,408.274,685.8823816,0.595253663
WUMJAQ,O=[N+]([O-])C12CC1CCOC2C1CCCCC1,1.25,178.024,299.0893289,0.595220166
PEHZOR,COc1ccc(C2CC(=O)C(C)CC2[N+](=O)[O-])cc1,1.2449,208.901,350.9760044,0.595200234
LOBDIR,CC(C)OC(=O)C1(C(=O)OC(C)(C)C)CN1C(=O)c1cc([N+](=O)[O-])cc([N+](=O)[O-])c1,1.3064,320.051,537.8490433,0.595057301
XAYCEF,CCOC(=O)C1=C(CN2CCCCC2)NC(CN2CCCCC2)=C(C(=O)OC)C1c1cccc([N+](=O)[O-])c1,1.2547,414.469,696.5323436,0.595046309
PIXTEX,CC1CC(C)(C)NCCN(Cc2ccc([N+](=O)[O-])cc2)C(C)CC(C)(C)NCCN1Cc1ccc([N+](=O)[O-])cc1,1.213,451.582,758.9175469,0.595034338
OCEJUD,COc1c([N+](=O)[O-])cc([N+](=O)[O-])c(NC(C)C(C)C)c1C(=O)NC(C)C(C)C,1.2592,310.904,522.499356,0.595032312
WATTAN,COC(=O)[C@@H]1C(=O)C=C(C)N[C@H]1c1cccc([N+](=O)[O-])c1,1.2873,222.66,374.2126195,0.59500933
WICVUZ,CC(=O)OC1CCC2(C)OC(=C([N+](=O)[O-])C3C2CCC2(C)C(OC(C)=O)CCC32)C1,1.2797,325.202,546.582334,0.594973492
XEDTAC,CC[C@H]([C@H]1NC(C#N)=C(C#N)N(CC)[C@@H]1OC)[N+](=O)[O-],1.2394,222.46,373.9942643,0.594821956
VIQWOI,CC1(C)[C@H]2CC[C@]1(C)C(=O)/C2=N/c1ccc([N+](=O)[O-])cc1,1.239,228.103,383.4950536,0.59480037
KOJCUJ,O=C1C(Oc2ccc3ccccc3c2)C(c2cccc([N+](=O)[O-])c2)N1CCCN1CCOCC1,1.2608,361.276,607.440145,0.594751603
TICSED,CCCOC1C(n2cc(C)c(=O)[nH]c2=O)OC(CO)C1[N+](=O)[O-],1.3309,244.227,410.6548134,0.59472577
WAMNAZ,COCC1C(C)C(=O)CC(c2ccccc2)C1[N+](=O)[O-],1.2376,221.146,371.8523079,0.594714609
YAWCEG01,N#CC(C#N)=Cc1ccc([N+](=O)[O-])cc1,1.4601,222.488,621.3374231,0.5946263
FUHTEH,CCOC(=O)C1C(c2ccccc2)C([N+](=O)[O-])C(c2ccccc2)N1c1ccccc1,1.2462,329.698,554.5641889,0.594517292
YOKNAO,CC(C)c1cccc(C(C)C)c1/N=C/c1ccc([N+](=O)[O-])cc1,1.1837,258.687,435.131531,0.594502999
RACLAI,COC1CC(=O)CC(C(C)(C)C)C1[N+](=O)[O-],1.2383,182.661,307.2725643,0.594459191
EPNBCH10,CC(/C=C/C12OC(CC1(C)C)CC2(C)O)OC(=O)c1ccc([N+](=O)[O-])cc1,1.2499,296.252,498.4433092,0.594354452
MAXPEH,CCOc1cc2c(c([N+](=O)[O-])c1)OC1(C=C2)N(c2ccccc2)c2ccccc2C1(C)C,1.2432,339.873,571.9313804,0.594254856
DAWPAS,CC(C)(C)C1=CC(O)(C(C)(C)C)C(=O)C(C)([N+](=O)[O-])C1[N+](=O)[O-],1.2535,258.318,434.7412865,0.594187872
CUTXAQ,CC(C)(C)C1=C[C@@](C)([N+](=O)[O-])C(=O)[C@@](C)(O)[C@H]1[N+](=O)[O-],1.285,219.673,369.7471106,0.594116881
VADWAY,CCCCCC1OC(=O)/C(=C2/CCC(CCCC)O2)C(=O)C1OC(=O)c1ccc([N+](=O)[O-])cc1,1.2587,370.9,624.2982189,0.594107093
TERWIW01,CC(=O)OCC1OC(Oc2ccc([N+](=O)[O-])cc2)C(OC(C)=O)C(OC(C)=O)C1OC(C)=O,1.3251,349.27,587.8982983,0.594099355
FECMEG,CC(=O)C1(C(CC(C)C)C[N+](=O)[O-])CCOC1=O,1.2432,204.023,343.4555756,0.594030246
HOJNAX,COc1c(O)ccc(/C=N/c2c(C(C)C)cccc2C(C)C)c1[N+](=O)[O-],1.2163,288.783,486.2796122,0.593862035
MAYKUV,C[C@H](O)[C@@H]1[C@H]2OC(C)(C)O[C@H]2[C@H]2N1C[C@@H]1C[C@@]12[N+](=O)[O-],1.3057,214.476,361.3680558,0.593511232
WEZKUK,CC(C)C1CCC(C)C2(O)C1C(=O)CCC2[N+](=O)[O-],1.2373,214.371,361.2475497,0.593418558
NANILI29,Nc1ccc([N+](=O)[O-])cc1,1.4571,222.446,622.6166847,0.593292529
JAPJOZ,CC(=O)OCC(OC(C)=O)C(OC(C)=O)C(OC(C)=O)C1CC(C)=C(C)CC1[N+](=O)[O-],1.2727,343.012,578.2535476,0.593186158
HIWRIO,CCOC(OCC)C(C(O)C1CCOC(c2ccccc2)O1)[N+](=O)[O-],1.2665,276.218,465.6801007,0.593149674
FABTAF,CC1C2OC(C)(C)OC2C(C(C)[N+](=O)[O-])ON1Cc1ccccc1,1.2575,263.301,443.9295804,0.59311434
BADQAC,COc1cc2c(cc1OC)C(=O)C(O[N+](=O)[O-])(C(=O)OC(C)(C)C)C2,1.2975,268.042,451.9277358,0.593108098
QAYJEG,CCOC(=O)C1(C(=O)OCC)CC2C=CCCC2C2CC/C(=N\Nc3ccc([N+](=O)[O-])cc3[N+](=O)[O-])C2C1,1.3071,397.91,671.0775582,0.592941896
COWMAE,CCOC12OC3=CC=CC=CC3CC1=C(Cc1ccc([N+](=O)[O-])cc1)C(=O)N2C(C)(C)C,1.2415,345.947,583.4502009,0.592933209
MESSEI,CCC(OC(=O)c1ccc([N+](=O)[O-])cc1)C1([N-][N+]#N)COc2ccccc2C1=O,1.2958,300.984,507.620974,0.592930583
MUNBIH,CC1=CC(N(Cc2ccccc2)Cc2ccccc2)C(/C=N/Nc2ccc([N+](=O)[O-])cc2[N+](=O)[O-])C(C)(C)C1,1.2259,423.414,714.215478,0.592837894
GESBIP,O=[N+]([O-])CCCCCCCCCCCC[N+](=O)[O-],1.1958,214.169,361.3014652,0.592770915
LOJBER,CCCCNc1ccc([N+](=O)[O-])cc1,1.2136,157.437,265.599571,0.592760747
BAQMOV,CC(=O)OCC1OC(/C(=C\c2ccco2)[N+](=O)[O-])C(OC(C)=O)C(OC(C)=O)C1OC(C)=O,1.3175,350.444,591.2895901,0.592677439
WOTKUL,CC(C)(C)OC(=O)C12CCC([N+](=O)[O-])(C(O)C1)C(O)C2,1.2894,219.151,369.7995309,0.592621087
YIRSIC,O=C1C=CC([N+](=O)[O-])=C/C1=C/Nc1ccccc1O,1.455,222.499,623.5153068,0.592578619
KAKHEJ,Cc1cc2c(cc1OC(=O)c1ccc([N+](=O)[O-])cc1)C(C)CCCC1(C)OC21,1.2427,301.799,509.334794,0.592535604
RERXEU,CC(=O)OC1CCCCC1(C)[N+](=O)[O-],1.2594,157.058,265.1634423,0.592306385
BADPUV,COc1ccc2c(c1)CC(O[N+](=O)[O-])(C(=O)OC(C)(C)C)C2=O,1.2908,246.19,415.6652413,0.592279497
BAQMIP,CC(=O)OCC1OC(C(C2CCCC(=O)C2)[N+](=O)[O-])C(OC(C)=O)C(OC(C)=O)C1OC(C)=O,1.3047,367.205,620.0603974,0.592208439
IXOYUS,O=[N+]([O-])c1ccccc1/N=C1\CCCC2C3CCCN4CCCC(CN12)C34,1.2533,288.905,487.8865142,0.59215615
DUPLIK,CC(C)(C)OC(=O)C(C)(C)C(=O)c1ccc([N+](=O)[O-])cc1,1.2267,234.885,396.8089766,0.591934694
BOBLEK,C=C(C)C1(O)CCC(C)(OCOC)C(C)(CCOCc2ccccc2)C1COC(=O)c1ccc([N+](=O)[O-])cc1,1.2294,432.755,731.1118612,0.591913526
FEBJUS,COC(=O)C1CC(O)CC(OC2OC(COC(C)=O)C(OC(C)=O)C(OC(C)=O)C2OC(C)=O)C1[N+](=O)[O-],1.3322,405.149,684.5448542,0.591851648
QEYWOG,O=C(OC1C2OCCCC2OC(COCc2ccccc2)C1OCc1ccccc1)c1ccc([N+](=O)[O-])cc1,1.2717,412.082,696.2649746,0.591846517
WADFUE,CCOC(=O)C1(C(=O)OCC)CC(C(C)=O)C(c2ccccc2[N+](=O)[O-])N1,1.2691,292.822,494.7945547,0.591805219
MAVBIX,CC(C)(C)Nc1c(-c2ccccc2)cn(C(C)(C)C)c1-c1ccc([N+](=O)[O-])cc1,1.1863,324.092,547.6438149,0.591793409
GEZNAA,CC(=O)OCC(OC(C)=O)C(OC(C)=O)C(OC(C)=O)C(OC(C)=O)C1CC2C=CC1([N+](=O)[O-])C1C=CCC21,1.2889,420.196,710.1584122,0.591693336
EQUTAL,CC(=O)C1C(c2ccccc2)C([N+](=O)[O-])C(c2ccccc2)CC1(C)O,1.2202,284.375,480.6277604,0.591674105
BOWDEX,CC1(O)CCN(C2CCCCC2)C(c2ccccc2)C1[N+](=O)[O-],1.2183,256.544,433.7138024,0.59150527
SEKHUL,CC(=O)OC1COC(C[N+](=O)[O-])C(OC(C)=O)C1OC(C)=O,1.3299,235.659,398.4370283,0.591458583
QOVMIX,COC1CC(=O)CC(C2COC(C)(C)O2)C1[N+](=O)[O-],1.29,207.941,351.5853695,0.591438148
HALROB,CNC(=O)C1C(=O)CC(C)(O)C(C(=O)NC)C1c1cccc([N+](=O)[O-])c1,1.2763,279.379,472.4871304,0.591294412
FIYCUL,COC1=NC(C(C[N+](=O)[O-])c2ccc(OC)c(OC)c2)C(OC)=NC1C(C)C,1.2491,309.032,522.7213915,0.591198304
SUHSIX,CC(=C=C(C(O)C(C)OC(=O)c1cc([N+](=O)[O-])cc([N+](=O)[O-])c1)C(C)(C)C)OC(=O)N(C(C)C)C(C)C,1.2406,412.453,697.7000724,0.591160896
OJUNEM,CN(C)/N=C(\C=N\N(C)C)c1ccc([N+](=O)[O-])cc1,1.2151,212.572,359.6143001,0.591111087
KAQNIZ,CC(C)C(CC(=O)N1C(=O)OC(c2ccccc2)(c2ccccc2)C1C(C)C)C[N+](=O)[O-],1.2143,354.2,599.2758074,0.591046719
MAYKEF,C[C@H]1CN2C[C@@H](O)[C@H]3OC(C)(C)O[C@H]3[C@@H]2[C@H]1[N+](=O)[O-],1.3032,204.956,346.7703119,0.591042523
OLIBOB,CCC(OC)C1(CC)CCC=C1c1ccc(OC(=O)c2ccc([N+](=O)[O-])cc2)cc1,1.2601,318.671,539.2422233,0.590960771
MOLFID,O=C1C=CC([N+](=O)[O-])=C/C1=C/NCCN1CCCCC1,1.2397,219.364,371.237453,0.590899432
BAQMAH,CC(=O)CC(c1ccco1)C(C1OC(COC(C)=O)C(OC(C)=O)C(OC(C)=O)C1OC(C)=O)[N+](=O)[O-],1.3005,397.702,673.1321458,0.590823069
RURSII,CNC1=C([N+](=O)[O-])C(c2coc3ccc(C)cc3c2=O)c2c(c3ccccc3oc2=O)O1,1.3082,324.012,548.4927411,0.59073161