name,smiles,Density,Vint,Veff,pc
VILROA,CNC1=C([N+](=O)[O-])C(c2cccc(C)c2)C(C#N)=C(C(C)(C)C)O1,1.2148,264.185,447.2168743,0.590731288
MEFGAG,CC(C)CC(NC(=O)C(C)NC(=O)C(C)NC(=O)OCc1ccccc1)C(=O)Nc1ccc([N+](=O)[O-])cc1,1.2452,415.314,703.1251367,0.590668685
LODCOW,CCCCC1=CC(OC(=O)c2ccc([N+](=O)[O-])cc2)CCC1(C)CC(=O)OC,1.226,311.332,527.1441115,0.590601305
WAZGAI,CC(C)CCCC(C)C1CCC2C3CC=C4CC(OC(=O)c5ccc([N+](=O)[O-])cc5)CCC4(C)C3CCC12C,1.185,443.073,750.2354799,0.590578574
MOZLUJ,CCCNC(=O)c1ccccc1[N+](=O)[O-],1.2434,164.097,277.9038169,0.590481274
KUYFUH,CC1C(OC(=O)c2cc([N+](=O)[O-])cc([N+](=O)[O-])c2)CCC1C(C)(C)C,1.2478,275.145,465.9844639,0.5904596
KAQNAR,CC(C)C(CC[N+](=O)[O-])C(=O)N1C(=O)OC(c2ccccc2)(c2ccccc2)C1C(C)C,1.2169,353.057,597.9954087,0.590400854
IQOMUX,CC(=O)C1C(c2ccccc2)C([N+](=O)[O-])C(c2ccco2)CC1(C)O,1.2463,269.884,457.2105913,0.590283789
JITLUT,CC(C)N1CCCO[C@@H]1c1ccc([N+](=O)[O-])cc1,1.229,199.425,337.972963,0.590061993
TIFTUY,CC(COC(=O)c1ccc([N+](=O)[O-])cc1)CC(C)CC(C)CC(C)C(C)OC(=O)c1ccc([N+](=O)[O-])cc1,1.2216,423.695,718.0805861,0.590038233
FULJOL,CC(=O)OC1CCCC(OC(=O)C23CCC(C)(C(=O)O2)C3(C)C)C1(C)[N+](=O)[O-],1.275,305.199,517.291444,0.589994293
ZILMUC,CC1CCC2C(C)C(OC(CC(=O)O)c3ccc([N+](=O)[O-])cc3)OC3OC4(C)CCC1C32OO4,1.3038,358.558,607.7911669,0.589936181
BIZHAT,C/C1=C\CC(C)(C)/C=C/CC(C)([N+](=O)[O-])C([N+](=O)[O-])CC1,1.2056,240.609,407.9511383,0.589798575
ZIZJEX,COC1OC(CO[N+](=O)[O-])C(OC(C)=O)C(OC(C)=O)C1OC(C)=O,1.3395,266.932,452.6152317,0.589754788
JUKDUO,CC1CC2C3CCCC3([N+](=O)[O-])C(=O)C2(N2CCOCC2)C1,1.2717,237.255,402.4165229,0.589575692
NIRLAC,C=C(C)C1(CCOC(=O)c2ccc([N+](=O)[O-])cc2)CC2CCC(OC)C(C)(C)C2C1,1.2076,336.584,571.0009034,0.589463165
SORYEE01,CN(C)c1ccc([N+](=O)[O-])c2c([N+](=O)[O-])ccc(N(C)C)c12,1.4472,222.501,626.8758784,0.589407207
PIFZOU,COC(=O)C1C(c2ccc(OC)cc2)C([N+](=O)[O-])C(c2ccc(C)cc2)N1C(C)=O,1.2425,324.658,550.8560181,0.589369979
TOLHOR,CC1(C)OCC(C2C(C)(C)C2(C)[N+](=O)[O-])O1,1.2225,183.419,311.2438579,0.589309621
LACCUO,O=[N+]([O-])c1ccc2c(c1)C(C#Cc1ccccc1)C1CCCCC1(N1CCOCC1)O2,1.2206,335.258,568.9374739,0.589270377
MELCUE,CC(C)(C)c1cc(CNc2ccc([N+](=O)[O-])cc2)cc(C(C)(C)C)c1O,1.1856,293.9,498.9223295,0.589069646
VEGJIA,CC(=O)OCC(OC(C)=O)C(OC(C)=O)C(OC(C)=O)C(OC(C)=O)C1C2C=CC(C2)C1[N+](=O)[O-],1.2923,377.785,641.4300089,0.588973068
IPAQAT,COc1cc2c(c([N+](=O)[O-])c1OC)C(C#N)CC1C2(C)CCC2C(C)(C)CCCC21C,1.2103,344.325,584.8416382,0.58874912
OFIJUJ,CC1=CCC(C(C)CC2CCCC2OC(=O)c2cc([N+](=O)[O-])cc([N+](=O)[O-])c2)CC1,1.2442,327.022,555.4838287,0.588715608
YAKCIW,CC1=C(CC(C)(C)[N+](=O)[O-])C(=O)CC(C)(C)C1,1.1824,197.73,335.8728429,0.588704934
YODHAC,CCOC(=O)CC1CC(=O)CC(c2ccccc2)C1[N+](=O)[O-],1.2458,239.401,406.720799,0.588612632
TUHNAN,CCOC(=O)C1=C(N)C(C#N)(C(=O)OCC)C(c2ccc(C)cc2)C([N+](=O)[O-])C1c1ccc(C)cc1,1.2328,389.343,661.6613227,0.58843246
XIXBEM,CC1CC/C=C2\C(CCCCC2OC(=O)c2ccc([N+](=O)[O-])cc2)CC1=O,1.2291,295.071,501.4810325,0.588399124
WACBIL,COc1ccc(CC2C3CCC(C)(C2OC(=O)c2ccc([N+](=O)[O-])cc2)C3(C)C)cc1,1.2175,339.589,577.2267055,0.588311311
UGECOZ,CCCCCC(=C=C=C(CCCCC)c1ccccc1)C(=O)c1ccc([N+](=O)[O-])cc1,1.1535,353.31,600.6526155,0.588210208
MEJGOY,C=C1N(C(=O)OCC)N=C(OCC)C1(Cc1ccc([N+](=O)[O-])cc1)C(=O)OCC,1.2721,311.091,528.8877197,0.588198569
NAQGET,O=C1N2CCCCCCCCCCOc3ccccc3C3OC(c4ccc([N+](=O)[O-])cc4)C1(O3)c1ccccc12,1.2681,417.645,710.0753452,0.588169978
TARLOQ,COc1ccc(OC(C(=O)NCCc2ccccc2)C(C)(C)C)c([N+](=O)[O-])c1,1.2172,309.884,526.8628294,0.588168272
WIKYUK,Cc1cc2c(cc1[N+](=O)[O-])C(C)(C)CC(C)C2(C)C,1.1701,217.984,370.6552285,0.588104479
RULLEP,CC(CN1CCN(CC(C)[N+](=O)[O-])CC(C)([N+](=O)[O-])C1)[N+](=O)[O-],1.2893,252.337,429.1115508,0.588045229
FALKEM,CC(C)CNC1=C([N+](=O)[O-])C(=O)C(O)=C(C(C)(C)C)C1C(C)(C)C,1.1868,278.273,473.246594,0.588008458
WUMHUI,O=[N+]([O-])C12CC1COC2C1CCCCC1,1.2404,166.195,282.640497,0.588008448
XESCEG,Cc1ccc(C(=N)C(ON2C(C)(C)CCCC2(C)C)[N+](=O)[O-])cc1,1.1916,273.022,464.3509772,0.587964737
YEZQOL,CON1C(=O)CCCCCCCCCC/C=C(/C)CC1c1ccc([N+](=O)[O-])cc1,1.1838,331.756,564.2671352,0.587941383
EQUJAE,CC(C)(C)NC(=O)C1(NC(=O)c2ccccn2)CCCC(c2ccc([N+](=O)[O-])cc2)C1,1.2263,337.686,574.447426,0.587844918
MHPNBZ10,CC(C)(C)C(CC(c1ccccc1)C(C)(C)C)OC(=O)c1cc([N+](=O)[O-])cc([N+](=O)[O-])c1,1.2109,356.422,606.4370039,0.587731286
FEMMOA,CC1CC(OC(=O)c2ccc([N+](=O)[O-])cc2)C(=O)O1,1.2619,204.924,348.8044795,0.587503923
NOSLEM,Nc1cc([N+](=O)[O-])c(N2CCOCC2)cc1N1CCOCC1,1.2831,234.215,398.8086076,0.587286722
FONZAK,CC1(C)C2CCC1(C)C1OC(=O)C(C(C[N+](=O)[O-])c3ccccc3)N=C21,1.2399,280.137,477.0238667,0.587259925
UHAFAN,CC(C)(C)C(OCC(=O)OCc1ccc([N+](=O)[O-])cc1)c1ccccc1,1.2084,287.895,490.8109472,0.586570046
PIWDUU,CC1(C)CCC[C@@]12CCN1CC[C@@H]([N+](=O)[O-])[C@@H]12,1.2156,190.771,325.3553745,0.586346546
EFICEC,C=C(C)C1CCC2C(C)(OC(=O)c3ccc([N+](=O)[O-])cc3)CCCC12C#N,1.2121,295.754,504.4048282,0.586342524
OBOHOF,CC(C)(C)c1cc(/C=N/Nc2ccc([N+](=O)[O-])cc2[N+](=O)[O-])cc(C(C)(C)C)c1O,1.2271,328.615,560.5121386,0.586276331
VAQZUJ,CC(C)CC1NC(c2ccccc2[N+](=O)[O-])N(Nc2ccccc2)C1=O,1.2303,280.106,478.0406062,0.58594604
YEJVIU,CC1(C)O[C@H]2[C@H]([N-][N+]#N)O[C@H]([C@H](O)C[N+](=O)[O-])[C@H]2O1,1.4395,222.366,630.2290873,0.585915482
HUHBUI,COC(=O)C(=C=NC(C)(C)C)C(C(=O)OC)N(/N=C/c1ccc([N+](=O)[O-])cc1)C(=O)CC(C)(C)O,1.2342,386.445,659.566268,0.585907768
BEXTIK,COc1ccc(C2C=CCN2C(=O)OC2CC(C)CCC2C(C)(C)c2ccc([N+](=O)[O-])cc2)cc1,1.2097,384.573,656.5070596,0.585786542
INAPAO,CC1CCC(C(C)(C)c2ccccc2)C(NC(=O)c2ccc([N+](=O)[O-])cc2)C1,1.1878,311.332,531.5513673,0.585704448
YORCIR,CC(COC(=O)c1ccc([N+](=O)[O-])cc1)C1OC(C)(C)OC(C)C1C,1.2302,277.631,474.0285255,0.585684162
MNIANL05,Nc1cccc([N+](=O)[O-])c1,1.438,222.499,630.8864891,0.58565502
GAHTUF01,CC1CCC(C(C)(C)c2ccc([N+](=O)[O-])cc2)C(OC(=O)C2=CC(=O)CCC2)C1,1.2126,320.159,546.6923255,0.58562922
JOBMES,C=C(C)C1C(C)C(OC(=O)c2cc([N+](=O)[O-])cc([N+](=O)[O-])c2)CC1(C(=O)OCC)C(=O)OCC,1.2706,365.931,624.9255564,0.585559346
AXOXUG,CC1CCC(C(C)(C)c2ccccc2)C(OC(=O)C(O)C(Cc2ccccc2)[N+](=O)[O-])C1,1.2029,354.994,606.3638631,0.585447157
PUHKIN,CC(=O)OCC1(C)C(OC(C)=O)CCC2(C)C(CC(C[N+](=O)[O-])C3=CCOC3=O)C(=O)CCC12,1.2472,373.483,638.0574983,0.585343799
SENZUH,CC(C)(C)c1cc(NC(=O)c2ccc([N+](=O)[O-])cc2)cc(C(C)(C)C)c1O,1.1996,299.905,512.4510509,0.585236384
AJUQUS,CC(=O)C(Cc1ccc([N+](=O)[O-])cc1)(OOC(C)(C)C)C(C)=O,1.2191,257.555,440.1616892,0.585137249
BAQLOU,CC(=O)CC(c1ccc(C)o1)C(C1OC(COC(C)=O)C(OC(C)=O)C(OC(C)=O)C1OC(C)=O)[N+](=O)[O-],1.2817,410.184,701.1646595,0.585003814
BUVVET,CC(C)(C)C1CCC2CCCC2/C(=N/Nc2ccc([N+](=O)[O-])cc2[N+](=O)[O-])C1,1.2336,305.593,522.5869638,0.584769658
PAYBOI,O=[N+]([O-])c1cccc(C(N2CCCCC2)N2CCCCC2)c1,1.2027,244.654,418.6289854,0.584417249
UGIROT,CC(=O)OC1CCC2(C)C(CCC3C4CC=C(/C(C)=N/Nc5ccc([N+](=O)[O-])cc5)C4(C)CCC32)C1,1.2112,395.248,676.3243978,0.584405947
RIJNAZ,CC1OC([N+](=O)[O-])C(O)C2OC(C)(C)OC12,1.3202,171.298,293.1897817,0.584256378
JIRGIB,Cc1ccc([N+](=O)[O-])c2c1[N-]/C(=C1\C(=O)C3C(=O)C(C(C)(C)C)=CC3(C(C)(C)C)[N+]1=O)C=C2N1CCCCC1,1.2214,422.789,723.6656195,0.584232536
MAKRUO,CC1=CCCC(C)(C)C1/C=C/C(=O)/C=C/c1ccc([N+](=O)[O-])cc1,1.1717,269.156,460.8463242,0.584047189
WIJMEH,Cc1ccc([N+](=O)[O-])cc1N=C=C(/C=C(\C#N)C(C)(C)C)C(C)(C)C,1.1444,287.447,492.1938839,0.584011727
TIFHEW,CCC(/C=C/C1C(C)=CCCC1(C)C)OC(=O)c1ccc([N+](=O)[O-])cc1,1.1797,293.428,502.8027213,0.583584749
DEMMOX,C=C1CCC([N+](=O)[O-])C(C)([N+](=O)[O-])CCC2C1CC2(C)C,1.2077,237.606,407.2417754,0.58345193
COVWIT,CC1(N2CCOCC2)C(N2CCOCC2)=CC(c2ccccc2)C1[N+](=O)[O-],1.2348,292.814,501.8919498,0.583420396
RUSWAF,COC(=O)C1(C(C[N+](=O)[O-])c2ccccc2NC(=O)OC(C)(C)C)CCOC1=O,1.262,313.289,537.0676015,0.583332525
FOSXIW,CC12CCCN1C=C(Cc1ccccc1)C(c1ccccc1)C2[N+](=O)[O-],1.1852,284.535,487.8450741,0.583248689
FIJREX,CC(C)CCCC(C)C1CCC2C3CC(=O)C4=C/C(=N/Nc5ccccc5[N+](=O)[O-])CCC4(C)C3CCC12C,1.1789,437.874,751.2940108,0.582826422
YIHJEE,CCCCCCC(C(=O)N1CC(Oc2ccccc2)CC1C(=O)OC)n1cnc([N+](=O)[O-])c1,1.2328,359.595,617.2245113,0.5826
HIYDUR,COC(=O)C1(C(NC(=O)OC(C)(C)C)c2cccc([N+](=O)[O-])c2)Cc2ccccc2NC1=O,1.2515,351.813,603.9584953,0.582511882
CIKVEZ,COC(=O)C1C(=O)NC(c2ccc(C)cc2)C([N+](=O)[O-])C1c1ccc(C)cc1,1.2234,302.134,518.7208262,0.582459745
SEKJAU,CC1(C)CC(C)(C)NC(c2ccc([N+](=O)[O-])cc2)N1,1.1929,213.333,366.3417753,0.582333259
FASTUQ,CCN(CC)c1nc(N/N=C/c2ccc([N+](=O)[O-])cc2)nc(N(CC)CC)n1,1.2133,307.806,528.6024878,0.582301459
XIQKAM,CON1C(=O)C2(CC([N+](=O)[O-])C3COC(OC4CC(C)CCC4C(C)C)C2(O)C3)c2ccccc21,1.2523,376.981,647.4420577,0.582262143
BEMWEV01,O=[N+]([O-])c1ccc(NN=C2CCCCCCC/C=C\CCCCCCC2)c([N+](=O)[O-])c1,1.1962,347.773,597.2968099,0.582244864
FAGWAO,COC(=O)C1=C(C(=O)OC)N(c2cc3ccccc3oc2=O)CN(c2ccc(C)c([N+](=O)[O-])c2)C1,1.273,363.805,625.0180951,0.582071148
TIMZAQ01,O=C(N/N=C/c1ccccc1[N+](=O)[O-])c1ccncc1,1.43,222.369,634.4159241,0.582056577
QOVTAX,CCCCCCCCCCCNc1cc(NCCCCCCCCCCC)c([N+](=O)[O-])cc1[N+](=O)[O-],1.1515,425.031,730.2648303,0.5820231
BAWZIJ,CC(C[N+](=O)[O-])C(=O)N1C(=O)OC(c2ccccc2)(c2ccccc2)C1C(C)C,1.2136,315.358,542.0875473,0.581747361
SEWQES,COc1ccc(N2C=C(C(C)C)C(c3ccccc3)C([N+](=O)[O-])C2CC(C)C)cc1,1.1718,336.498,578.5334451,0.581639666
IQUTOE,CC(C)C1CCC2(C)C3CC(OC(=O)c4ccc([N+](=O)[O-])cc4)CC3CC3CCC12O3,1.219,338.409,582.0081139,0.581450657
ZURLIJ,CCCn1cc(C(=O)CC(C)(C)C(C)(C)[N+](=O)[O-])cn1,1.1802,230.015,395.6256968,0.5813955
CUQXAN,CCCCC1(COC(=O)c2cc([N+](=O)[O-])cc([N+](=O)[O-])c2)C=CC2(C1)OC(C)C(C)O2,1.2318,340.203,585.306788,0.581238774
MAKSAV,CC1=CCCC(C)(C)C1/C=C/C(=O)/C=C/c1cccc([N+](=O)[O-])c1,1.1626,269.81,464.4534991,0.580919297
DOZMIQ,CC1(C)CCCC(C)(C)N1O/C(=C/[N+](=O)[O-])c1ccccc1,1.1768,249.336,429.2310818,0.5808899
NEQNOM,COc1cc([N+](=O)[O-])c2nc(/C=C/c3cccc4ccccc34)ccc2c1,1.1479,299.141,515.1723869,0.580661945
XIVNIZ,CC1CCC(C(C)C)C(c2ccccc2OC(=O)c2ccc([N+](=O)[O-])cc2)C1,1.1809,311.2,536.0409605,0.58055265
MAYKOP,C[C@@H]1CN2C[C@@H](O)[C@@H]3OC(C)(C)O[C@@H]3[C@H]2[C@@H]1[N+](=O)[O-],1.2795,205.005,353.1934899,0.580432556
RUSNEY,CC(/C=C/C(C)C(C)(C)OC(=O)c1cc([N+](=O)[O-])cc([N+](=O)[O-])c1)C1CCCCC1,1.2078,333.618,574.9959994,0.580209254
CUPBEV,CCC(C(Nc1ccc(C)cc1)c1ccccc1)[N+](=O)[O-],1.1666,234.633,404.4776313,0.580088939
HIQMID,CC1(C)CC(=O)C2=C(C1)NC1=C(C(=O)CC(C)(C)C1)C2c1cccc([N+](=O)[O-])c1,1.2133,312.859,539.5126356,0.579891886
SUMVOM,CCOC(=O)c1nnn(-c2ccc(OC)cc2)c1-c1cccc([N+](=O)[O-])c1,1.2541,282.589,487.4307494,0.579752099
COCHAE,CC1CCC(CCOC(=O)c2cc([N+](=O)[O-])cc([N+](=O)[O-])c2)C1(C)C,1.2318,273.617,472.0371928,0.579651358
JUKDEY,CC(C)C1C2CCCC2(N2CCCC2)C(=O)C1(C)[N+](=O)[O-],1.1958,236.778,408.5458484,0.579562859
CIMCUZ,CNC1=C([N+](=O)[O-])C(c2ccc(OC)c(OC)c2)C2=C(CC(C)(C)CC2=O)O1,1.2414,300.909,519.2397315,0.579518442
LUCVUC,CC1CCC2(OC1)OC1CC3C4CCC5C(N)=C([N+](=O)[O-])C=CC5(C)C4CCC3(C)C1C2C,1.2173,360.704,622.4675924,0.579474344
ZILNAJ,CCOC(=O)CC(OC1OC2OC3(C)CCC4C(C)CCC(C1C)C24OO3)c1ccc([N+](=O)[O-])cc1,1.2675,383.498,661.9226038,0.57936985
JEPBUB,C=C1CCC(C(C)C)C2/C(=C/C)C(OC(=O)c3ccc([N+](=O)[O-])cc3)CC12,1.1736,302.639,522.3956802,0.579329063
YUXCUQ,CN1OCCC1(C[N+](=O)[O-])C1COC2(CCCCC2)O1,1.2636,217.854,376.0568684,0.579311318
AFONOA,Nc1ccc([N+](=O)[O-])cc1/N=C/c1ccncc1,1.4217,222.487,638.1196956,0.578985282
VAKROR,CCC1CC2(CC)OCC(O)(CC)C2C1COC(=O)c1ccc([N+](=O)[O-])cc1,1.2145,309.509,534.8916174,0.578638719
OKUBAX,CC1CC(C)OC(C(C)C(c2ccccc2)C(C)[N+](=O)[O-])O1,1.1861,248.804,430.0652405,0.578526178
WITMER,CC(C)=N[C@@H](ON1C(C)(C)C=[N+]([O-])C1(C)C)C(C)(C)[N+](=O)[O-],1.1946,252.655,436.7594927,0.578476265
FONYOX,Cc1ccccc1C(C[N+](=O)[O-])C1N=C2C3CCC(C)(C2OC1=O)C3(C)C,1.21,293.817,508.046513,0.578326969
CALLIL,CC1(C)OCC(C2OC(C)(C)OC2C(C[N+](=O)[O-])C(C2OC3COC(C)(C)OC3C3OC(C)(C)OC32)[N+](=O)[O-])O1,1.2901,428.862,741.7454438,0.578179487
XATFIJ,C=C=C1CCCC[C@H]1OC(=O)c1cc([N+](=O)[O-])cc([N+](=O)[O-])c1,1.4194,222.501,639.1537067,0.578084984
KOJPOP,CCOC(=O)CC(C[N+](=O)[O-])C1OC2OC(C)(C)OC2C1OCc1ccccc1,1.2528,313.515,542.3641372,0.578052601
ZAKWIU,COC(=O)C1=C(C)OC(N)=C(C#N)[C@H]1c1ccccc1[N+](=O)[O-],1.4188,222.499,639.4240001,0.577835426
URICOP,O=[N+]([O-])c1ccc(-c2nccc(-c3ccccc3)n2)cc1,1.4188,222.454,639.4240001,0.57771856
QURWAB,CC(C)(C)N1CC2([N+](=O)[O-])CN(C(C)(C)C)CC([N+](=O)[O-])(C1)C2,1.2211,257.81,446.3412321,0.577607403
IKAZEA,O=C1CCCN1C1CC(c2ccc([N+](=O)[O-])cc2)Nc2cccc(-c3cc(-c4ccccc4)on3)c21,1.2275,375.175,649.602038,0.57754591
JUYRAZ,Cc1cc(C)c(N2CC/C(=C3/C(=O)N(Cc4ccc([N+](=O)[O-])cc4)c4ccccc43)C2)c(C)c1,1.1917,364.712,631.5285932,0.57750671
VITMEQ,CC1CC2(CCCCC2)NC(C)c2cc([N+](=O)[O-])ccc21,1.1833,233.548,404.4265882,0.577479342
XIKQEP,Cc1noc(CC(c2ccc(C#N)cc2)C2C=CC(=O)N2C(=O)OC(C)(C)C)c1[N+](=O)[O-],1.225,342.925,593.9578968,0.577355738
KUFMAZ,C=CC(CC1=CCCC(C(C)(C)C)C1)OC(=O)c1ccc([N+](=O)[O-])cc1,1.1694,292.684,507.2313753,0.577022665
REWFAA,CC1=C(C(=O)OC(C)C)C(c2cccc([N+](=O)[O-])c2)N(C(=O)N(C)C)C(=O)N1,1.2446,300.327,520.5605203,0.576930037
BEPKEM,O=[N+]([O-])c1ccc(NN=C2CCCCCCC/C=C/CCCCCCC2)c([N+](=O)[O-])c1,1.1896,346.488,600.6106624,0.576892855
VOLJUC,CCOC(=O)C(C)C1CCC(CC(CC(C)C)OC(=O)c2cc([N+](=O)[O-])cc([N+](=O)[O-])c2)O1,1.243,359.203,622.8186917,0.576737668
XUSQUX,CC1(C)CC2=C(C1=O)C1(C)CCCC1(C)C2OC(=O)c1ccc([N+](=O)[O-])cc1,1.2172,301.468,522.7551241,0.576690665
IBAXAK,CCOC(=O)/C(=C(/C)NC(C)c1ccccc1)C(C)C[N+](=O)[O-],1.178,260.237,451.3415045,0.576585573
KIKNAU,CC(C)(C)c1cc(/C=N/c2ccc([N+](=O)[O-])cc2)c(O)c(C(C)(C)C)c1,1.1588,292.57,507.572597,0.576410156
DAFVEL,CC(CN(C)C)/N=c1\c2ccccc2[nH]c2cccc([N+](=O)[O-])c12,1.1955,259.503,450.2700244,0.576327506
NTMCPO,CC1CC(C)(C)C(=O)C1[N+](=O)[O-],1.1908,137.459,238.5885921,0.576134
GIRMUS,COc1ccc(C(=O)C2C(C(=O)c3ccccc3)=Cc3ccccc3C2c2cccc([N+](=O)[O-])c2)cc1,1.1949,391.508,679.8017813,0.575914937
FIJQUM,CC(C)CCCC(C)C1CCC2C3/C(=N/Nc4ccccc4[N+](=O)[O-])C=C4C=CCCC4(C)C3CCC12C,1.1548,428.404,743.972423,0.575833172
RUFDAY,CCCCCCCCCCOc1ccc([N+](=O)[O-])cc1,1.1388,234.198,407.1057487,0.575275591
XOPDAK,CC1([N+](=O)[O-])CN(Cc2ccccc2)CC2CCCCN2C1,1.1878,243.819,423.8803508,0.57520713
JOKCIX,CC1(C)CCCC(C)(C)N1OC1C(O)C(C=O)C(c2ccccc2)C([N+](=O)[O-])C1c1ccccc1,1.1854,386.92,672.7887451,0.5750988
NUNCOO,O=[N+]([O-])c1ccc(N[C@@H](CO)c2ccccc2)cc1,1.2021,204.91,356.5440434,0.574711607
BOGGIP,CCCCC1C([N+](=O)[O-])C(c2ccccc2)C(CCC)C2c3[nH]c4ccccc4c3CCN12,1.1745,361.812,629.5617055,0.574704587
POCVOU,CN1OC(C)(C)CC1(C[N+](=O)[O-])C1COC2(CCCCC2)O1,1.2291,243.745,424.4847741,0.574213764
TIFHAS,CC1=CCCC(C)(C)C1/C=C(\C)C(C)OC(=O)c1ccc([N+](=O)[O-])cc1,1.1597,293.455,511.4739763,0.573743756
POQTAR,CC(=O)OC1CCC2(C)C3CCC4(C)C(C(C)CCCC(C)C)CCC4C3C/C(=N\[N+](=O)[O-])C2(OC(C)=O)C1,1.1761,442.522,771.4453305,0.573627168
ZOKDAG,C=C1CN(C(C(=O)NC(C)(C)C)c2ccc([N+](=O)[O-])cc2)C(=O)c2ccccc2O1,1.211,321.633,561.0713111,0.573247988
BOWDOH,CC(c1ccccc1)N1CCC(C)(O)C([N+](=O)[O-])C1c1ccccc1,1.1698,276.697,482.9036904,0.572985888
DEMMIR,C=C1CCC([N+](=O)[O-])C(C)(N=O)CCC2C1CC2(C)C,1.1584,229.927,401.6442826,0.572464267
DADYEO,Cc1[nH]c2ccccc2c1C(C(=O)OC(C)(C)C)C(C)[N+](=O)[O-],1.1809,256.043,447.3986821,0.572292701
TIQXEW,COC1CCC(CCCOC(=O)c2ccc([N+](=O)[O-])cc2)OC12CCCCO2,1.231,303.528,530.3920682,0.572271001
FULJIF,CC(=O)OC1CCCC(OC(=O)C23CCC(C)(C(=O)O2)C3(C)C)C1[N+](=O)[O-],1.2508,290.919,508.6921991,0.571895933
DAVCOS,Cc1cc(C(C)(C)C)cc(C)c1OC1(C)C=C(C(C)(C)C)C([N+](=O)[O-])C(C)(O)C1=O,1.1564,342.638,599.1766511,0.571848051
HESYEK,CCCC1(CCC)c2cc(N3CCCC3)ccc2-c2ccc([N+](=O)[O-])cc21,1.1616,297.646,520.6745512,0.571654596
QURTIJ,Cc1cccc(C)c1-n1c(C)cn2c(=O)c(-c3ccc([N+](=O)[O-])cc3)cc(/C(O)=C3\C=CC=CC3=O)c2c1=O,1.2204,405.229,709.1413578,0.57143614
MULSUJ,CCOC(=O)CC1CCC([N+](=O)[O-])C(C(=O)OCC)C12C(=O)N(C(=O)OC(C)(C)C)c1ccccc12,1.2364,386.586,677.2018945,0.570857824
YADHET,CC(NC(=O)OC(C)(C)C)C(=O)C1=CN2C(=O)CC(c3ccccc3)N2C1c1ccc([N+](=O)[O-])cc1,1.2092,385.728,675.9417706,0.570652705
YIXLEW,CC(C)(C)C1=C(C(C)(C)C)C(C(OC(=O)c2cc([N+](=O)[O-])cc([N+](=O)[O-])c2)C(C)(C)C)(C(C)(C)C)O1,1.1633,410.56,719.8601098,0.570333033
ACAMIA,CCc1cc([N+](=O)[O-])cc(CC)c1NC(=O)c1ccc(C(C)(C)C)cc1,1.178,284.746,499.299767,0.570290673
PIJBAL,CC(C)CN(Cc1cc([N+](=O)[O-])ccc1O)CC(C)C,1.1493,230.59,404.824447,0.569604928
GUYSIC,CCCCCCCCCCCCCCCCOCC1CCCN1c1ccc([N+](=O)[O-])cc1,1.1144,378.442,665.1204328,0.56898267
BOWDIB,COC(=O)C(C(C)C)N1CCC(C)(O)C([N+](=O)[O-])C1c1ccccc1,1.1852,278.947,490.6478535,0.568527913
QABWIZ,CC1(C)OC2OC(C3ON(Cc4ccccc4)C(c4ccccc4)C3[N+](=O)[O-])C3OC(C)(C)OC3C2O1,1.2331,392.034,689.7945561,0.568334436
KUMMOV,CCC(CCC(C(/N=C/c1ccccc1)c1ccccc1)[N+](=O)[O-])(OC)OC,1.1486,315.32,555.4681083,0.567665353
HUDLOI,Cc1cccc(C(=O)NC(C)C)c1[N+](=O)[O-],1.1786,177.478,312.930591,0.567148132
BABTEG,CC12CCC(O)C(C)(C)C1CCC13C=C(COC(=O)c4ccc([N+](=O)[O-])cc4)C(C=C12)C(=O)C3=O,1.2139,371.566,655.531942,0.56681601
TECPOG,COC(CC(C(O)C1COC(C)(C)O1)[N+](=O)[O-])OC,1.2358,212.459,375.0819472,0.566433553
AHUHEQ,CCCCCCCCCCCCCCCCCCNc1ccc([N+](=O)[O-])cc1[N+](=O)[O-],1.1417,358.347,633.1569581,0.565968668
KASBAH,N#CN(Cc1ccccc1)[N+](=O)[O-],1.3896,222.49,652.8603708,0.565920234
WECZEJ,CC(C)(C)/N=C/C(=C\NC(C)(C)C)[N+](=O)[O-],1.1191,190.692,337.08114,0.565715424
JACLAE,N#CC(C#N)=C(/C=C/c1ccc([N+](=O)[O-])cc1)n1ccc2ccccc21,1.1581,275.408,487.6638116,0.564749718
TAYJUA,CCN(CC)C(=O)C(CC(C)C)NC(=O)c1cccc([N+](=O)[O-])c1,1.1557,271.864,481.6192706,0.564479074
OVEQAJ,O=[N+]([O-])c1ccc2c(c1)-c1cc([N+](=O)[O-])ccc1-c1ccc([N+](=O)[O-])cc1-c1cc([N+](=O)[O-])ccc1-2,1.2648,358.71,635.5464828,0.564411903
USODEM,CC1(C)OCC(C2OC3OC(C)(C)OC3C2(O)C[N+](=O)[O-])O1,1.2683,234.762,417.8363365,0.561851566
KAQPIE,CC(C)=CC1=C([C@@H](c2ccccc2)C(C)(C)OC(=O)c2cc([N+](=O)[O-])cc([N+](=O)[O-])c2)Cc2ccccc21,1.1674,409.321,728.585386,0.561802375
BIZGUM,C/C1=C\CC(C)(C)/C=C/CC(C)(N=O)C([N+](=O)[O-])CC1,1.1283,231.531,412.3590684,0.561479103
OZUJEA,O=[N+]([O-])c1ccc(Nc2ccccc2)cc1Nc1ccccc1,1.1585,245.499,437.3554926,0.561325979
OFANAN,CCCCC(/C=C/C(C)(CCCC)C(C)/C=N/Nc1ccc([N+](=O)[O-])cc1[N+](=O)[O-])c1ccc(C)cc1,1.136,416.812,743.0380366,0.560956478
DICREN,CC(C)(C)OC(=O)NNC1(C(=O)OC(C)(C)C)CCC/C1=N\Nc1ccc([N+](=O)[O-])cc1,1.1976,349.362,622.9017005,0.560862171
DARQUJ,O=C1C[C@H](c2ccccc2)N1c1ccc([N+](=O)[O-])cc1,1.3761,222.502,659.2651488,0.560452531
LEKLOC,O=Cc1ccccc1CCNc1ccccc1[N+](=O)[O-],1.3761,222.5,659.2651488,0.560447493
IRENEY,CC(C)(C)OC(=O)C1CC(OC(=O)c2ccc([N+](=O)[O-])cc2)CCN1C(=O)OC(C)(C)C,1.1903,351.121,628.0790376,0.559039514
AKUZAI,CC(C)(C)OC(=O)NN(C(=O)OC(C)(C)C)C(C)(C=O)C(C[N+](=O)[O-])c1ccccc1,1.1693,347,620.9195435,0.558848572
DAZKAR,CC(=O)OC1CCC2(C)C(CCC3C2CCC2(C)C3CC3OC4(OCC(C)C/C4=N\[N+](=O)[O-])C(C)C32)C1,1.1842,404.573,724.0338521,0.558776359
AYUGUX01,Cc1ccc(/N=C/c2cc([N+](=O)[O-])ccc2O)cc1,1.3718,222.497,661.33166,0.558688689
GUYSOI,CCCCCCCCCCCCCCCCCCOC1CCN(c2ccc([N+](=O)[O-])cc2)C1,1.1123,383.748,687.3007273,0.558340745
KEFLEM06,Nc1ccc(-c2ccc([N+](=O)[O-])cc2)cc1,1.3714,222.368,661.5245525,0.558201958
UYOPUW,CC(C)N(C(=O)c1ccccc1C(CCc1ccccc1)C[N+](=O)[O-])C(C)C,1.1113,318.787,571.154416,0.558145032
ZONFOX,COCC1CCCN1/N=C/C(C[N+](=O)[O-])C(C)(C)C,1.1334,221.479,397.3331886,0.557413794
PIWYAV,Cc1ccc2c(c1)CN1CN2Cc2cc(-c3c(C)cccc3C(=O)Oc3ccc([N+](=O)[O-])cc3)ccc21,1.1704,388.225,696.9078871,0.557067881
MUYCAK,CC(C)C1CC2C3(C)CCC2(C)C(OC(=O)c2ccc([N+](=O)[O-])cc2)C1C3,1.1602,295.71,531.3142207,0.556563308
KUZBAJ,CCOC(=O)/C(C#N)=C/c1cc([N+](=O)[O-])ccc1N1CCCC1,1.3662,222.499,664.0424326,0.556412996
OMOSAL,CCOC(=O)C1=C(C)NC(Cn2cccn2)=C(C(=O)OCC)C1c1cccc([N+](=O)[O-])c1,1.1841,343.338,617.300576,0.55619258
JOPWUG,CC(C[N+](=O)[O-])C1C(=O)N(C)C(C(C)(C)C)N1C(=O)OC(C)(C)C,1.154,274.686,493.878443,0.556181392
POHCIB,N#CC1=C(N)OC2=C(C(=O)CCC2)C1c1ccccc1[N+](=O)[O-],1.1993,239.194,430.7488202,0.555298097
VUJVOL,CCn1c2ccccc2c2cc([N+](=O)[O-])ccc21,1.3615,222.506,666.3347567,0.55451627
IMPYRA,Cc1cc(=Nc2ccc([N+](=O)[O-])cc2)cc(C)o1,1.3608,222.495,666.6775215,0.554203772
EXOKEK,C/C(=N\NC(=O)c1ccccc1)c1ccc([N+](=O)[O-])o1,1.4186,177,319.65901,0.553715035
NMBZYA01,COc1ccc(/N=C/c2ccc([N+](=O)[O-])cc2)cc1,1.3595,222.497,667.3150212,0.553679307
FEBGIF,CC(C)(C)OC(=O)NC(CCC[N+](=O)[O-])C(=O)OC(C)(C)C,1.1521,253.577,458.6131336,0.552921365