name,smiles,Density,Vint,Veff,pc
HACHUQ,CC1(C)Cc2ccccc2C(CC2c3ccccc3OC(c3ccccc3)C2[N+](=O)[O-])=N1,1.2681,340.434,558.1092386,0.60997736
TUFNEP,Cc1nn(C(c2ccc(-c3ccccc3)cc2)C(O)C(=O)c2ccccc2)c(C)c1[N+](=O)[O-],1.2693,352.059,577.1724593,0.609971932
SIPQOY,C/C=C(\C)C(C)C(C)(C#N)COC(=O)c1ccc([N+](=O)[O-])cc1,1.2397,258.304,423.4781925,0.609958209
EGOREA,CC1(C)CCC2C(Nc3cccc([N+](=O)[O-])c3)C(=O)OC2(C)O1,1.3142,246.74,404.5197614,0.60995784
ADINAE,C/C(=C/OC(=O)c1ccc([N+](=O)[O-])cc1)CC(C)/C=C/C(=O)N1C(=O)OCC1Cc1ccccc1,1.2858,376.647,617.5577434,0.609897623
DALHAA,CC(C)NC(=O)N(c1c([N+](=O)[O-])cc([N+](=O)[O-])cc1[N+](=O)[O-])C(C)C,1.3459,267.22,438.1457108,0.609888431
BOHXUR,CC1(C)OCC(C2OC(C(O)C3OC4OC(C)(C)OC4C4OC(C)(C)OC43)([N+](=O)[O-])C3OC(C)(C)OC23)O1,1.381,401.291,658.0190511,0.609847085
PABPOX,Cc1nc2ccccc2c(NCCCN(C)C)c1[N+](=O)[O-],1.2555,232.416,381.135973,0.60979812
YOCQEO,COc1ccc(-c2cn3c4c2CCCC4C(c2ccc([N+](=O)[O-])cc2)OC32CCCCC2)cc1,1.2855,360.955,591.9261437,0.60979736
MUYHUL,O=C1OC(c2cccc([N+](=O)[O-])c2)C2(CCCCC2)C(=O)C12CCCCC2,1.2929,290.711,476.7347334,0.609796139
ERSTND,COc1c2c(c3c(c1CCCOC(=O)c1cc([N+](=O)[O-])cc([N+](=O)[O-])c1)OC(C)(C)C=C3)OC(C)(C)C=C2,1.317,403.036,660.9357974,0.609795992
HODYUW,CCOC(=O)/C=C/C1C(C)Oc2ccccc2C1C[N+](=O)[O-],1.2823,240.951,395.143704,0.609780689
TUNWAB,O=[N+]([O-])c1ccccc1NN=C1CCCCC1,1.2785,184.625,302.7869676,0.609752135
TELNUT,CC1(C)CC(=O)C2=C(C1)NC1=C(C(=O)CC(C)(C)C1)C2c1ccccc1[N+](=O)[O-],1.2789,312.079,511.8388307,0.609721227
HENKAP,COc1ccc2c(c1)C1(C(=O)N2)C(c2cn(C)c3ccccc23)C([N+](=O)[O-])C2CC3CCCCC3N21,1.3021,378.086,620.0968182,0.609720916
XUFBIM,CC1(O)CC2CCC3C(C)(COC(=O)c4ccc([N+](=O)[O-])cc4)CCCC3(C)C23CCC1C3,1.2744,361.674,593.233418,0.609665587
BEJBUN,CC1(C)OC2(C=Cc3cc([N+](=O)[O-])ccc3O2)c2ccccc21,1.299,240.899,395.1436792,0.609649129
EPOREJ,Cc1nn(C)c(-n2nc(-c3ccccc3)cc2-c2ccccc2)c1[N+](=O)[O-],1.2815,283.68,465.3803637,0.609565899
RIKMAZ,C=C(CC(O)c1ccc([N+](=O)[O-])cc1)C(C)O,1.2684,189.2,310.4134653,0.609509642
IDEFOM,CC1(C)CC2C1CCC1(COC(=O)c3cc([N+](=O)[O-])cc([N+](=O)[O-])c3)CCC2(C)C1,1.2987,324.343,532.1729265,0.609469185
IQONEI,Cc1ccc(C2CC3(C)Nc4ccccc4C(O3)C2[N+](=O)[O-])o1,1.3117,242.369,397.6814262,0.609455167
PIZQIY,CCC12CCCn3c1c(c(-c1ccccc1[N+](=O)[O-])c(C(C)=O)c3=O)CC2,1.2919,286.841,470.657097,0.609447944
GEJLEM,Cc1ccc(N(C)CCc2ccc([N+](=O)[O-])cc2)cc1,1.2293,222.393,364.9143548,0.609438892
EVULAK01,CCCCNc1c([N+](=O)[O-])cc2c3c(cccc13)C(=O)N(CCCC)C2=O,1.2808,291.682,478.6397585,0.609397767
BIYHOJ,CCOC(=O)/C=C/N1c2ccccc2NC=C(C(=O)OCC)C1c1ccc([N+](=O)[O-])cc1,1.3047,339.069,556.4081499,0.609388989
XUYYIC,CCCCCCCCCCOc1ccc(/C(C)=N/N=C(\C)c2ccc([N+](=O)[O-])cc2)cc1,1.2124,364.91,598.9170062,0.609283083
REHLAR,CCOC(=O)C(CCCCCCOc1ccc(/N=N/c2ccc([N+](=O)[O-])cc2)cc1)C(=O)OCC,1.2723,385.817,633.3019117,0.609214962
TAJKIY,CCC(CC)(c1ccc(N(C)C)cc1)C(CC)(CC)c1ccc([N+](=O)[O-])cc1,1.1918,324.482,532.6265516,0.609211086
GAPPUL,O=C1/C(=C\Oc2ccc([N+](=O)[O-])cc2)CCC2C3CCCN4CCCC(CN12)C34,1.3102,306.691,503.4274002,0.609206014
JEDTIV,CC(=O)OCC(OC(C)=O)C(OC(C)=O)C(OC(C)=O)C(OC(C)=O)C(OC(C)=O)C(C)[N+](=O)[O-],1.3269,386.658,634.7033769,0.609194805
GUQKIN,O=C(CC(c1ccc([N+](=O)[O-])cc1)C1CCCC1=O)c1ccccc1,1.266,269.383,442.2120192,0.609171593
MUVNUM,COc1ccc2c(c1[N+](=O)[O-])CCC1C2CCC2(C)C(=O)CCC12,1.2882,258.443,424.3188893,0.609077292
ZUKDIV,O=C1OC(Cc2ccc([N+](=O)[O-])cc2)(c2ccccc2)C2CCCCC12,1.2805,277.325,455.3805581,0.608996135
UKOZUP02,C=C(C)C1CC(OC(=O)c2ccc([N+](=O)[O-])cc2)C2(C)CC=CC(C)C2(O)C1,1.2751,305.489,501.6427931,0.608977153
VAWFUW,O=C1CC2CC(c3ccccc3)C([N+](=O)[O-])CC2C(c2ccccc2)O1,1.2805,277.316,455.3805581,0.608976372
WICWAG,CC(=O)OC1CCC2(C)C3CCC4(C)C(OC(C)=O)CCC4C3C([N+](=O)[O-])C2(O[N+](=O)[O-])C1,1.3382,353.812,581.0124213,0.608957721
DUJMAW,CN1CCO[C@]2(c3ccc([N+](=O)[O-])cc3)[C@H]1OCCN2C,1.3222,224.179,368.1623246,0.608913474
UPOREZ,COC(ON1C(C)(C)CCCC1(C)C)c1ccccc1[N+](=O)[O-],1.2473,261.18,428.9485134,0.608884264
AKUVUX,CC/C1=C(\C#Cc2ccccc2)O/C(c2ccccc2)=C\C(=O)C(CC)C1c1ccc([N+](=O)[O-])cc1,1.2346,390.786,641.8502918,0.608842911
AXOYER,CC1CCC(C(C)(C)c2ccccc2)C(OC(=O)C(O)C(c2ccccc2)[N+](=O)[O-])C1,1.2512,343.6,564.3547813,0.608836872
VALVEK,O=[N+]([O-])c1ccc(-c2cnc(/C=C/C=C/N3CCCCCC3)o2)cc1,1.2633,271.429,445.8214667,0.608828915
OWEMIP,Cc1ccc2c(c1)C1CC(O2)OC2(CCCC2)C1[N+](=O)[O-],1.318,221.786,364.2880245,0.608820453
NIEQIN,CCOc1cc2c(c([N+](=O)[O-])c1)NC(C)(C)C=C2C,1.2712,208.461,342.4291783,0.608771136
TUFHOU,COC(=O)/C(=C1/C(=O)N(C)c2ccccc21)C(C/C=C/c1ccccc1)OC(=O)c1ccc([N+](=O)[O-])cc1,1.2895,401.486,659.5503357,0.608726853
CUWTAR,O=[N+]([O-])c1ccc(C2OCCC3c4ccccc4C(c4ccccc4)C32)cc1,1.266,296.343,486.83669,0.608711311
ROMYEY,COC(=O)c1cc(OC)c(OCCCN2CCCCC2)cc1[N+](=O)[O-],1.2996,273.893,449.9866133,0.608669218
YERBEC,Cc1nn(-c2ccc([N+](=O)[O-])cc2)c2c1N=C(c1ccccc1)CC(c1ccccc1)N2,1.2747,335.534,551.2789778,0.608646463
CABYOX,COc1ccc(C(C[N+](=O)[O-])C2CCCCC2=O)cc1,1.2646,221.49,363.9130288,0.608634433
QOTGOV02,O=[N+]([O-])c1ccc(N[C@]23C[C@H]4C[C@H](C[C@H](C4)C2)C3)nc1,1.31,210.729,346.2512331,0.608601443
FIJPIZ,CC(C)OC(=O)C(=O)C1C(c2ccccc2)C1[N+](=O)[O-],1.2699,220.512,362.3466371,0.608566432
GAVMEW,Cc1ccc(C2CN(C)C3(C(=O)Nc4ccccc43)C2[N+](=O)[O-])cc1,1.285,265.14,435.6879926,0.608554756
BENZEB,COC(=O)/C(=C/C=C/c1ccc([N+](=O)[O-])cc1)CC(=O)OC(C)C,1.2691,265.238,435.8845849,0.608505116
NEGKES,CC(C)(C)c1cc(N)n(-c2ccccc2[N+](=O)[O-])n1,1.2692,207.094,340.3462316,0.608480367
KIKQUR,CC1CCC(=O)C(C(O)c2ccc([N+](=O)[O-])cc2)C1,1.2813,207.482,341.0052507,0.608442244
CAWDUB,COC(=O)C1=C(c2ccc(C)cc2)c2c(-c3ccc([N+](=O)[O-])cc3)oc(C)c2C1c1ccccc1,1.2667,371.02,609.8055961,0.60842341
MAKSEZ,CC1=C(/C=C/C(=O)/C=C/c2cccc([N+](=O)[O-])c2)C(C)(C)CCC1,1.2152,270.336,444.3496033,0.608385825
MAXPOR,COc1cc2c(c([N+](=O)[O-])c1)OC1(C=C2)N(c2ccccc2)c2ccccc2C1(C)C,1.2826,326.214,536.2160485,0.608362993
VAYCUU,O=C(NCCCNCc1ccccc1[N+](=O)[O-])C(=O)NCCCNCc1ccccc1[N+](=O)[O-],1.2968,367.863,604.678438,0.608361365
QOPWID,COc1ccc2c(c1)C(c1ccccc1)CC(c1cccc([N+](=O)[O-])c1)N2,1.2598,288.788,474.7267502,0.608324683
RASZIU,CN(C)CC[NH2+]Cc1cc([N+](=O)[O-])ccc1[O-],1.2686,190.412,313.0177218,0.608310606
SECPEX,COC(=O)C1OC(c2ccc(OC)cc2)N(C(=O)OC(C)(C)C)C1c1cccc([N+](=O)[O-])c1,1.3028,355.236,584.000078,0.608280741
TUQPAZ,CC1CC2(NC(c3ccccc3)C([N+](=O)[O-])C2c2ccccc2)C(=O)O1,1.285,276.795,455.0719962,0.608244415
IGOTUU,O=C(c1ccccc1)C1CC(C2=CCCCC2)([N+](=O)[O-])CCC1(O)c1ccccc1,1.2532,326.491,536.9176271,0.608083966
MAQDUG,CCCNC(=O)C1=CN2C(=O)C(NC(=O)OCc3ccccc3)C(C(C)C)N2C1c1ccc([N+](=O)[O-])cc1,1.2926,407.166,669.6195856,0.608055691
ILEFUD,CC1([N+](=O)[O-])CC1(c1ccccc1)c1ccccc1,1.2267,208.327,342.6387289,0.608007742
WOFJUX01,O=[N+]([O-])CC(c1ccccc1N1CCCCC1)C(C(C[N+](=O)[O-])c1ccccc1N1CCCCC1)[N+](=O)[O-],1.2875,411.905,677.4715754,0.608003369
YUMNIE,CCc1ccc(C2C3CCCN3C3(C(=O)Nc4ccccc43)C2(CO)[N+](=O)[O-])cc1,1.2963,317.134,521.6158228,0.607983857
JADNIM,CC1(C)NC(=C2C=C([N+](=O)[O-])C=CC2=O)NC1(C)C,1.2868,206.447,339.5622335,0.607979863
ABORIS,CC(C)C1CCC23OC(CC/C2=N\Nc2ccc([N+](=O)[O-])cc2[N+](=O)[O-])CC13C,1.3118,309.525,509.1303898,0.607948389
PATVIP,COC1OC2COC(C)(C)OC2C1(/N=N/c1ccc([N+](=O)[O-])cc1)OC(C)=O,1.3448,296.613,487.9220962,0.607910571
SAYMUD,CCCCC1(C)C=C(c2ccccc2)C1(C)COC(=O)c1ccc([N+](=O)[O-])cc1,1.2343,321.563,528.9945478,0.60787583
QUZCEU,O=C(CCCOc1cccc2cccnc12)N/N=C/c1cccc([N+](=O)[O-])c1,1.2875,296.467,487.7105523,0.607874893
SETPOW,COC1(C)CC2CC1C/C(=N\Nc1ccc([N+](=O)[O-])cc1[N+](=O)[O-])C2C,1.3168,277.611,456.7142074,0.60784402
OVUYEL,Cc1ccc(/C(=C\[N+](=O)[O-])N2CCCCC2)cc1,1.2354,201.105,330.8522068,0.607839379
BEMPUE,CC(=O)OC1CC2CC(C)(C)C23C(COC(=O)c2ccc([N+](=O)[O-])cc2)C13C,1.2813,304.979,501.7806074,0.607793517
BIMPOD,CCCCN1c2cc3ccccc3nc2N(CCCC)c2c1nc1cc([N+](=O)[O-])ccc1c2[N+](=O)[O-],1.3077,375.243,617.4094207,0.607770124
GAGHOM,C=CC(C)CC(c1ccco1)N(C(=O)c1cc([N+](=O)[O-])cc([N+](=O)[O-])c1)c1ccc(OC)cc1,1.2978,361.714,595.1872926,0.607731389
DEYRUV,C/C(=N\c1cc(C)cc(C)c1)c1ccc([N+](=O)[O-])cc1,1.2213,221.553,364.5640119,0.607720435
XIWHOA,CCCN(CCC)c1ccc([N+](=O)[O-])cc1,1.2095,185.315,304.9858754,0.607618303
HEHXEZ,CCCCn1c2cc(-c3ccc([N+](=O)[O-])cc3)ccc2c2ccc(N(c3ccccc3)c3ccccc3)cc21,1.2518,412.055,678.1769115,0.607592198
OXEJOR,O=[N+]([O-])c1cccc(C2O[N+]([O-])=C3CCCCCCCCCCC32)c1,1.268,275.459,453.3768775,0.607571788
EDEWUA,CCC(=O)N1CC2CCC(C1)N2C/C=C/c1ccc([N+](=O)[O-])cc1,1.262,263.155,433.1428268,0.607547866
BIYNOM,CC(CC(c1ccccc1)C(C)(C)C)OC(=O)c1cc([N+](=O)[O-])cc([N+](=O)[O-])c1,1.2689,318.154,523.6909155,0.607522473
DICJIJ,CN(C1COC(C)(C)OC1c1ccccc1)C(C#N)(C(=O)OC(C)(C)C)C(COCc1ccccc1)C[N+](=O)[O-],1.2542,445.043,732.5584248,0.607518779
YABMIY,CC1CC23OCC(c4ccccc4)N2C(=O)CC3C1C[N+](=O)[O-],1.3008,245.163,403.5869582,0.607460164
PIZMEQ,CCC12CCCN3C(=O)C(/C(C)=N/Nc4ccc([N+](=O)[O-])cc4[N+](=O)[O-])C(c4ccccc4)C(=C31)CC2,1.2998,390.536,642.9003944,0.607459574
HULJON,O=[N+]([O-])c1ccc(NN=C2CCCC2)cc1,1.2838,172.141,283.4076567,0.607397139
FAZLEX,CCCCCCOc1ccc(C#Cc2ccc([N+](=O)[O-])cc2NC(=O)CCC)cc1,1.2199,337.457,555.6726529,0.607294597
IREJEV,CC1(C)OC2C(c3ccco3)C([N+](=O)[O-])C3OC2(N2CCCC2)C(O1)C(c1ccco1)C3[N+](=O)[O-],1.3738,359.072,591.2968087,0.60726186
SEKJEY,CC(C)(CC(C)(C)[N+](=O)[O-])[N+](=O)[O-],1.2823,149.493,246.1766746,0.607258995
FOKWUY,Cc1ccc(C(=O)C2([N+](=O)[O-])C(C)(C)c3ccccc3C2(C)C)cc1,1.2357,275.033,453.1041822,0.606997266
BEQYIF,CC1(C)CC(=O)C2=C(C1)OC1=C(C(=O)CC(C)(C)C1)C2c1ccccc1[N+](=O)[O-],1.2779,311.681,513.5180663,0.606952356
PEQWEN,CC1C/C(=N\Nc2ccc([N+](=O)[O-])cc2[N+](=O)[O-])C2(CCC(C(C)(C)C)CC2)C1=O,1.2847,326.524,537.9867936,0.606936832
KAXLOK,COC[C@@H]1CCCN1/C=C(\C)[N+](=O)[O-],1.2595,160.136,263.8450044,0.60693209
YINPUJ,CC(C)c1cc(-c2cc(C(C)C)n(-c3ccccc3[N+](=O)[O-])n2)nn1-c1ccccc1[N+](=O)[O-],1.2811,362.014,596.5066825,0.6068901
NUKBOK,CC1(C)NC(C)(C)c2cc([N+](=O)[O-])ccc21,1.2458,178.057,293.4124481,0.606848827
PUKBAZ,CC1(C)CC(C)(c2ccccc2)c2ccc([N+](=O)[O-])cc21,1.2257,231.133,380.8955746,0.606814611
FETZOT,CC1C2Cc3c(cccc3[N+](=O)[O-])CC2ON(C2CCCCC2)C1C#N,1.2669,282.5,465.5677921,0.606785961
MENPHL,O=C(OC1C2CCC1C1C3C=CC(C3)C21)c1ccc([N+](=O)[O-])cc1,1.3027,251.464,414.4570632,0.606731124
PABPIR,CN(C)CCCNc1ccnc2c([N+](=O)[O-])cccc12,1.2586,219.457,361.7049306,0.606729357
SEKCIX,CCOC(=O)/C=C/c1cc(/C=C/C(=O)OCC)n(-c2ccc(OC)cc2)c1-c1ccc([N+](=O)[O-])cc1,1.2724,388.134,639.7225293,0.606722418
JOMSOW,CC1CC(=O)C=C2CCC(C3(C)CC(c4ccc([N+](=O)[O-])cc4)=NO3)CC21C,1.2643,304.561,501.9880414,0.606709672
PAXQAI,CC1(C)CC(=O)C2=C(C1)OC1=C(C(=O)CC(C)(C)C1)C2/C=C/c1ccccc1[N+](=O)[O-],1.2629,335.926,553.8255804,0.606555587
SAZLIP,CC1=C(C(=O)On2nnc3ccccc32)C(c2cccc([N+](=O)[O-])c2)C(C(=O)OC(C)(C)C)=C(C)N1,1.3005,380.283,627.185168,0.606332897
DOHGIS,CCCCCCCCCCn1c2ccc([N+](=O)[O-])cc2c2cc([N+](=O)[O-])ccc21,1.2559,318.408,525.1935501,0.606267918
TECVOM,COC(=O)c1c2cc(C(C)(C)C)cc1CCc1cc(cc([N+](=O)[O-])c1)CC2,1.2564,294.213,485.3043471,0.606244312
HECDIC,Cc1c([N+](=O)[O-])c(C)c(C(C)(C)C)c(C)c1[N+](=O)[O-],1.2569,213.141,351.6030923,0.60619774
WEGROQ,O=[N+]([O-])C1CCCCC1(OC1CCCCC1(O)c1ccccc1)c1ccccc1,1.2495,318.385,525.2382223,0.606172564
COXVAN,CC(C)c1cccc(C(C)C)c1/N=C(/Nc1ccc([N+](=O)[O-])cn1)c1ccccc1,1.2256,330.334,544.9596766,0.60616228
KABDAS,CC(C)(C)OC(=O)/C=C\CC1(C)CC12C=C/C(=N/Nc1ccc([N+](=O)[O-])cc1[N+](=O)[O-])C2,1.2815,347.326,572.9947722,0.606159108
HIBRIW,C=C(C(c1ccccc1)C(c1ccccc1)c1occc1C=O)[N+](=O)[O-],1.2497,279.559,461.2470414,0.60609386
IMUQOX,CCOC(=O)N1N=C(OCC)N(C(=O)OCC)C1c1ccc([N+](=O)[O-])cc1,1.3405,285.357,470.9057742,0.605974731
FULPAD03,COC(=O)C1=C(C)NC(C)=C(C(=O)OCC(C)C)C1c1ccccc1[N+](=O)[O-],1.2777,305.652,504.48791,0.605865857
CITCAJ,CC1=CC2(C/C=N/Nc3ccc([N+](=O)[O-])cc3[N+](=O)[O-])CCCC(C)(C)C2CC1,1.265,318.276,525.3679673,0.60581539
CEKKIM,CC(C)(C)OOC(=O)c1ccc([N+](=O)[O-])cc1,1.2842,187.288,309.153719,0.605808659
BAQLIO,CC(=O)CC(c1ccccc1)C(C1OC(COC(C)=O)C(OC(C)=O)C(OC(C)=O)C1OC(C)=O)[N+](=O)[O-],1.3118,411.961,680.018897,0.605808165
GAKXAT,O=[N+]([O-])c1cccc(/C=N/n2cnnc2)c1,1.4873,222.502,609.9742966,0.605741624
WUMHES,CC(C)[C@@H]1N(C=O)C[C@H]2C[C@@]12[N+](=O)[O-],1.2771,156.014,257.5879684,0.605672699
QQQFGG01,O=[N+]([O-])c1ccc(Nc2ccccc2)c([N+](=O)[O-])c1,1.488,222.371,609.6873463,0.605669914
VIDCES,Cc1c(-c2ccccc2)nc2c(c1-c1ccc([N+](=O)[O-])cc1)C(=O)CC(C)(C)C2,1.2506,310.516,512.7637522,0.605573227
SEKNAX,CCCCCCOc1ccc(C(=O)Oc2ccc(/C=C/C(=O)Oc3ccc([N+](=O)[O-])cc3)cc2)cc1,1.2706,387.135,639.3280622,0.605534189
HOQZUK,CC(=O)OCC1OC(CC(=O)CC(O)c2ccccc2[N+](=O)[O-])C(OC(C)=O)C(OC(C)=O)C1OC(C)=O,1.3389,404.913,668.7098033,0.605513779
OKIGAQ,CCCCCCCOc1c([N+](=O)[O-])cc(OC)c([N+](=O)[O-])c1C=O,1.3018,262.695,433.872316,0.605466148
KUFYOB,CCOC(=O)C1=C(C)C2=CCC(c3ccccc3)C([N+](=O)[O-])C2(O)CC1,1.2781,280.961,464.0450266,0.605460643
QEWHAD,CC1=CC2(C)CC(C)CC(C)C2C(/C=N/Nc2ccc([N+](=O)[O-])cc2[N+](=O)[O-])C1C,1.2644,329.358,544.0247287,0.60540998
KUMMIP,CC1=CCC([N+](=O)[O-])C(c2ccccc2)N1C(=O)OCc1ccccc1,1.2724,278.233,459.5783678,0.605409261
JARLOD,CCN(CC)c1c([N+](=O)[O-])c(N(CC)CC)c([N+](=O)[O-])c(N(CC)CC)c1[N+](=O)[O-],1.2904,332.056,548.5007648,0.605388399
ETAVOK,COC1=NC(CC(C)=O)N=C(OC)C1(Cc1ccccc1)[N+](=O)[O-],1.2871,260.187,429.8032638,0.605363016
FIGNIS,COC1=NC(C(C[N+](=O)[O-])c2ccc3c(c2)OCO3)C(OC)=NC1C(C)C,1.3066,290.173,479.3431143,0.60535552
FIDKIM,CC1=C2C(=O)CC(C)(C)C[C@H]2C([N+](=O)[O-])=C(C)N1,1.2713,197.776,326.7275793,0.605323862
VAWFIK,CN1CN(C)C2=C(C1=O)C1CC(c3ccccc3)C([N+](=O)[O-])CC1C(c1ccccc1)O2,1.2832,339.34,560.6079953,0.6053071
FONYIR,CC12CCC(C3OC(=O)C(C(C[N+](=O)[O-])c4ccccc4)N=C31)C2(C)C,1.2725,281.276,464.8030587,0.605150923
VASTAM,Cc1ccc(-c2cc([N+](=O)[O-])c(-c3ccc(C)cc3)c3c2[nH]c2ccccc23)cc1,1.2448,316.576,523.1429987,0.605142381
HODTOK,CCC(CC)Nc1c([N+](=O)[O-])cc(CNC2OCC(OC(C)=O)C(OC(C)=O)C2OC(C)=O)c(C)c1[N+](=O)[O-],1.3184,422.432,698.074735,0.605138646
JILXAG,COC(=O)C1(c2ccccc2)NC(c2ccccc2)C(c2ccccc2)C1[N+](=O)[O-],1.2614,320.377,529.4303977,0.605135257
OCEVUN,CCCN1c2ccccc2C(C)(C)C12C=Cc1cc([N+](=O)[O-])ccc1O2,1.258,279.677,462.2263501,0.605065029
FALMIS,CC(C)(C)C1C(=O)C(=O)C([N+](=O)[O-])=C(N)C1C(C)(C)C,1.2514,226.539,374.4218506,0.605036805
ULEPIL,CCCCCCCCCCn1c(=O)[nH]c2cc([N+](=O)[O-])ccc21,1.2388,258.856,427.8707103,0.604986492
MUSSUP,CC(Cc1ccc([N+](=O)[O-])cc1)N(Cc1ccccc1)CC(O)c1ccccc1,1.2257,319.818,528.6421844,0.604980097
WACTAX,CC1CCCN(C(c2cccc([N+](=O)[O-])c2)c2c(O)ccc3ccccc23)C1,1.255,301.099,497.7548502,0.604914246
QOFYER,COC(=O)/C(=C\NCCc1c[nH]c2ccccc12)C1c2ccccc2OC(c2ccc(C)cc2)C1[N+](=O)[O-],1.2702,404.278,668.332958,0.604905078
MEWTUF,COc1ccc([C@H]2CN(C)C[C@]2(CO)[N+](=O)[O-])cc1,1.2809,208.694,345.0151664,0.604883554
TIGVOX,COC(=O)C(C(=O)OC)C1c2cccc3c2c(cn3Cc2ccccc2)CC1[N+](=O)[O-],1.2987,326.493,539.7848727,0.604857632
DUVVIA,C=C1CC(C(=O)OC)(C(=O)OC)C(C)C1(C)[N+](=O)[O-],1.2929,210.611,348.2078569,0.604842756
NOQBOM,CC1=NN(c2ccccc2)C(=O)/C1=C(/C)C(C)C(C[N+](=O)[O-])c1ccccc1,1.2401,305.472,505.0681779,0.604813396
BUWQIT,CC(NC(=O)OCc1ccccc1)C1C(=O)N(Cc2ccccc2)C1c1ccc([N+](=O)[O-])cc1,1.267,363.938,601.8258455,0.604723115
VUYLEG,CN(C)/C(=N\c1ccc([N+](=O)[O-])cc1)C(C)(C)C,1.2171,205.528,339.9348577,0.604609958
PAQZEN,Cn1cccc1C(c1ccc([N+](=O)[O-])cc1)c1cccn1C,1.2446,238.067,393.7781831,0.60457133
QITKAG,CCOC(=O)NC1(c2ccccc2)CC(c2cccc([N+](=O)[O-])c2)=NN1C(=O)OCC,1.3077,327.052,541.1571641,0.604356778
WAHLIA,CN1[C@H](c2ccc([N+](=O)[O-])cc2)O[C@@H]2CCCC[C@@H]21,1.2799,205.519,340.1015482,0.604287164
XAYKEO,Cc1ccc(C)n1-c1ccc([N+](=O)[O-])cc1,1.2518,173.202,286.6582927,0.604210673
SAXHAA,CC(=O)OCC(OC(C)=O)C(OC(C)=O)C(OC(C)=O)C(OC(C)=O)C1C(C)N=NC1(C)[N+](=O)[O-],1.3222,381.818,631.9562925,0.604184189
OJUNUC,CN(C)/N=C/C(=N\N1CCCC1)c1ccc([N+](=O)[O-])cc1,1.2556,231.039,382.4218895,0.604146902
NODYIO,CCCC(C(C)=O)C1c2ccccc2C([N+](=O)[O-])c2ccccc21,1.2313,263.258,435.8210424,0.604050687
LAKFUY,CCC(Nc1cc(NC(C)C(N)=O)c([N+](=O)[O-])cc1[N+](=O)[O-])C(C)C(=O)O,1.3321,288.496,477.6286233,0.604017402
BIZHEX,C/C1=C\CC(C)(C)/C=C/CC(C)(O[N+](=O)[O-])C([N+](=O)[O-])CC1,1.2496,250.553,414.8423875,0.603971551
FAFSEK,CN1c2ccc3ccccc3c2C(C)(C)C12C=Cc1cc([N+](=O)[O-])ccc1O2,1.2719,293.437,485.8777891,0.603931702
XIZCUF,CC(C)c1ccc2c(c1)CCC1C(C)(CNc3ccc([N+](=O)[O-])cc3[N+](=O)[O-])CCCC21C,1.2474,362.783,600.7222584,0.603911367
OJUKAI,C=CC1(CCc2ccccc2)C(=O)CCC1(C)[N+](=O)[O-],1.2265,223.325,369.8087738,0.60389319
EYOGAB,CC1=CCC2(C#CCOC(=O)c3ccc([N+](=O)[O-])cc3)CCCC12C,1.256,270.747,448.3977745,0.603809866
MINVOV,CC12CCC3C(C)(CCC4C(C)(C)C(OC(=O)c5cc([N+](=O)[O-])cc([N+](=O)[O-])c5)CCC43C)C1CC2=O,1.2838,400.076,662.6001626,0.603797014
WEGWIP,CC1(C)N=C(c2ccc3ccccc3c2)C2C(c3ccc([N+](=O)[O-])cc3)N21,1.2404,288.67,478.1356943,0.603740744
PAZYOH,CCCCN1C(=O)C2(c3cc(C)ccc31)C(c1ccc([N+](=O)[O-])cc1)N1c3ccccc3C=CC1C2(C#N)C#N,1.2517,423.832,702.0919021,0.603670259
NONYOE,COC1CC(C)([N+](=O)[O-])C(O)C(C)O1,1.3184,155.931,258.3288793,0.603614278
VIGPOT,CO[C@@H]1O[C@@H]2OC[C@@](C)([N+](=O)[O-])C[C@@H]2[C@@H]1C[N+](=O)[O-],1.3722,201.668,334.1237457,0.603572786
ELUQEK,CCCCOC12C=CC(OC(=O)c3ccc([N+](=O)[O-])cc3)C3CC(=CCC1)C32,1.2686,302.734,501.5745995,0.603567247
TAJFER,CCOC(=O)C(CC(=O)NC1OC(COC(C)=O)C(OC(C)=O)C(OC(C)=O)C1OC(C)=O)[N+](=O)[O-],1.3577,383.989,636.1993234,0.60356713
JITWIS,Cc1cc(C)c(C(=O)/C=C(\O)c2ccc([N+](=O)[O-])cc2)c(C)c1,1.2492,249.591,413.5757507,0.603495247
WINLUA,CCN(CC)c1ccc(/C=C/[N+](=O)[O-])cc1,1.2048,183.082,303.3974334,0.603439515
VAYSEU,CC1(C)CC(=O)C2=C(C1)NC1=C(C(=O)CC(C)(C)C1)C2c1ccc([N+](=O)[O-])cc1,1.2618,313.034,518.7753057,0.603409601
UBUPEM,CCOC(=O)C12CCCCC1(O)C(/C(C)=N/Nc1ccc([N+](=O)[O-])cc1[N+](=O)[O-])CCC2,1.3101,342.798,568.1046823,0.603406398
MASJEW,CC(C)C1CCC(O)(COC(=O)c2ccc([N+](=O)[O-])cc2)CC1,1.2601,255.373,423.2317661,0.603388073
WAHLEW,CN1[C@@H](c2ccc([N+](=O)[O-])cc2)O[C@@H]2CCCC[C@H]21,1.2796,205.236,340.1812844,0.603313614
FIDCOM,O=C1Nc2ccccc2C12C1c3ccccc3OC(c3ccccc3)C1([N+](=O)[O-])C1CCCCN12,1.2974,360.76,597.9702413,0.603307615
IGOTOO,C=C(c1ccccc1)C1([N+](=O)[O-])CCC(C)(O)C(C(C)=O)C1,1.2382,245.244,406.5627563,0.603213148
FURALA10,O=C1OC(CN2CCOCC2)CN1/N=C/c1ccc([N+](=O)[O-])o1,1.4049,231.087,383.096347,0.603208571
ISONEL,CC1=NN(c2ccccc2)C(=O)C12C(c1ccccc1)C([N+](=O)[O-])CCC2(C)O,1.2746,308.951,512.2361545,0.603141729
JIMTII,COC1CC(OC(=O)C23CCC(C)(C(=O)O2)C3(C)C)C=C2CCCC21[N+](=O)[O-],1.3059,301.534,499.9713882,0.603102512
LEGFAG,CC1(C)CC(=O)C(C(/C=C/c2ccc([N+](=O)[O-])cc2)C2=C(O)CC(C)(C)CC2=O)=C(O)C1,1.2583,349.521,579.6190648,0.603018467
IHATAO,CC(C)(C)OC(=O)NC1(C[N+](=O)[O-])C(=O)N(Cc2ccccc2)c2ccccc21,1.2772,311.346,516.3875336,0.602930899
NUVZUC,CC(C)(C)OC(=O)C1(C(C[N+](=O)[O-])c2ccccc2)Cc2ccccc2C1=O,1.2517,304.824,505.6725641,0.602809054
RAKNIB,CN(C)CCOCCn1nc(OCc2ccccc2)c2cc([N+](=O)[O-])ccc21,1.2677,303.341,503.2491138,0.602765095
TEBBEH,O=[N+]([O-])c1ccc(N(C2CCCCC2)C2CCCCC2)c([N+](=O)[O-])c1,1.2729,272.969,452.9299954,0.602673708
IPUMEN,CC1(C)CC(=O)C2=C(C1)OC(c1ccc([N+](=O)[O-])cc1)C2c1ccccc1,1.2574,289.001,479.5944049,0.602594603
IWANUP,CC1c2ccccc2N=C2N1C(c1ccc([N+](=O)[O-])cc1)C2(C)c1ccccc1,1.2439,308.159,511.521106,0.60243653
REHMEW,CCCCCCCCOc1ccc(C(=O)Oc2ccc(C(=O)O)cc2C(=O)OCc2ccc([N+](=O)[O-])cc2)cc1,1.286,427.233,709.1767678,0.602435132
BUKLEA,C=CC1=CC(OC(=O)c2ccc([N+](=O)[O-])cc2)CCCC1,1.2612,227.732,378.0403011,0.602401382
VIWGOY,COC(=O)C1=CC2(COC3(C2)/C(=N/c2ccc([N+](=O)[O-])cc2)C2CCC3(C)C2(C)C)C(C(=O)OC)=NN1,1.3005,392.424,651.4856845,0.602352453
MCNPIZ,COC(=O)C1=C(c2ccccc2)C2(c3ccccc3)ON=C(c3ccc([N+](=O)[O-])cc3)C2(C(=O)OC)C1=O,1.2939,395.885,657.26079,0.602325601
BOJWED,CC(=O)OCC1CC(OC(=O)c2cc([N+](=O)[O-])cc([N+](=O)[O-])c2)C2OC(C)(C)OC12C,1.3456,325.665,540.6914648,0.602312079
MEPFOD,CCN(CC)CCN/C=C1/C=C([N+](=O)[O-])C=CC1=O,1.2376,214.22,355.765894,0.602137539
CUZWAW,CC(OC(=O)c1ccc([N+](=O)[O-])cc1)C1=CCC2C1C2(C)C,1.2473,241.347,400.9130251,0.601993412
YAJGAT,COc1ccc(N2C(C)=C(C(=O)OC(C)C)C(c3cccc([N+](=O)[O-])c3)C(C(=O)OC(C)C)=C2C)cc1,1.2598,403.277,669.9092808,0.60198748
EYALAS,CC(C)c1ccc2c(c1)CCC1C(C)(C/N=C/c3cc([N+](=O)[O-])ccc3O)CCCC21C,1.2248,354.412,588.7712928,0.601951903