name,smiles,Density,Vint,Veff,pc
SAQSUA,Cc1ccc(C(C2=C([O-])CC(C)(C)CC2=O)c2c[n+](Cc3ccc([N+](=O)[O-])cc3)cc3ccccc23)cc1,1.1382,408.273,738.5607606,0.552795412
JIZHEI,CCOC(=O)c1c(-c2ccccc2)c([N+](=O)[O-])c2c(c1O)c1ccccc1n2Cc1ccccc1,1.1696,365.782,661.8446126,0.552670511
MNPHOX,Cc1cc(C)c(C2=NOC(N(C)C)C(Nc3ccc([N+](=O)[O-])cc3)=C2)c(C)c1,1.136,306.164,555.7525937,0.550899813
GIKLAP,CC1(c2ccc([N+](=O)[O-])cc2)N=C2C=CC(=O)c3cccc(c32)N1,1.1814,246.693,448.5274293,0.550006497
PICFOW,CC(=O)/C=C(/C)Nc1ccc([N+](=O)[O-])cc1,1.35,222.498,672.0109418,0.549812742
XUYRIU,Cc1ccc2c(c1)C(C1=C([O-])c3ccccc3C1=O)(C(c1ccc([N+](=O)[O-])cc1)[n+]1ccccc1)C(=O)N2,1.1689,391.949,714.7983312,0.54833508
HOWVUM,O=[N+]([O-])c1ccc(N/N=C/C2=C(C3CCCCC3)OC(c3ccccc3)=CC2c2ccccc2)c([N+](=O)[O-])c1,1.1572,411.798,752.2437208,0.547426304
IWABEP,COc1ccc(C2C([N+](=O)[O-])C3CCCN3C23C(=O)N(C)c2ccccc23)cc1OC,1.1746,327.127,598.2732389,0.546785279
VARPOW,CC1(C)c2ccccc2N2Cc3cc([N+](=O)[O-])ccc3OC21/C=C/c1c2ccccc2cc2ccccc12,1.1354,396.031,728.6432318,0.543518395
QEPJIG01,CC(=O)O[C@H](C)Cn1c([N+](=O)[O-])cnc1C,1.3338,222.367,680.1730179,0.542895161
BOPQUU,CCOC(=O)CCc1c[nH]c2ccc([N+](=O)[O-])cc12,1.3336,222.368,680.2750234,0.542816196
QOPWEZ,Cc1ccc2c(c1)C(c1ccccc1)CC(c1cccc([N+](=O)[O-])c1)N2,1.1117,278.69,514.0771834,0.542117038
KEZVES,O=[N+]([O-])c1cccc(-c2cc3c(o2)C(c2ccccc2)(c2ccccc2)CC3c2ccccc2)c1,1.1122,369.625,682.5866193,0.541506366
MABZNA02,CN(C)c1ccc(/C=N/c2ccc([N+](=O)[O-])cc2)cc1,1.3275,222.497,683.4009576,0.540646767
LEBGAA,CC(C)(C)OC(=O)CCC(CCC(=O)OC(C)(C)C)(CCC(=O)OC(C)(C)C)[N+](=O)[O-],1.1052,360.454,669.0294265,0.538771518
MOBNIA,COC(=O)C12C(=O)CCCC1CC(=O)C1C3CCC(OC(=O)c4ccc([N+](=O)[O-])cc4)C3(C)CCC12,1.1617,382.363,710.7330363,0.537983998
UHOQUE,CC(C)(NC=O)C(C)(C)[N+](=O)[O-],1.3186,222.453,688.0136292,0.536915893
DACPUS,CC12CCCC1(O)CCC/C2=N\Nc1ccc([N+](=O)[O-])cc1[N+](=O)[O-],1.1667,264.786,495.5231677,0.534356448
JAHGOR,COc1cc(C2c3cc4c(cc3CC3COC(=O)C32)OCO4)cc2nc3cc([N+](=O)[O-])ccc3nc12,1.1834,363.304,680.7453872,0.533685585
MIGVIK,Cc1c(-c2ccc([N+](=O)[O-])cc2)nc2c(C#N)c(N)nc3c2c1C=NN3c1ccccc1,1.1438,325.536,611.4061523,0.532438214
GUNGON,CN1C(=O)C2(c3ccccc31)C1CCC(/C(=C\C=C\c3ccc([N+](=O)[O-])cc3)C1=O)C2(C#N)C#N,1.1182,365.359,689.2907571,0.53005063
MINPAB,Cc1ccc(/N=C/c2ccccc2[N+](=O)[O-])c(C)c1,1.3008,222.367,697.4283298,0.529463207
BOTMUV,Cc1ccc(C2CC(c3ccc([N+](=O)[O-])cc3)C3(C(=O)c4ccccc4C3=O)c3c2c2ccccc2n3C)cc1,1.1071,417.746,789.2601217,0.529288112
VUNMEX,Cc1ccc(/N=C/c2ccc([N+](=O)[O-])cc2)cc1C,1.2991,222.364,698.3409833,0.528764124
MULTEU,CCOC(=O)CC1CC([N+](=O)[O-])C(C(=O)OCc2ccccc2)C12C(=O)N(C(=O)OC(C)(C)C)c1ccccc12,1.1365,426.009,806.8642519,0.527981007
VUNMIB,Cc1ccc(/N=C/c2cccc([N+](=O)[O-])c2)cc1C,1.2957,222.499,700.1734748,0.527700424
MINPEF,Cc1ccc(/N=C/c2cccc([N+](=O)[O-])c2)c(C)c1,1.291,222.457,702.7225184,0.525687002
WIFMOQ,O=C1C2CN(Cc3ccccc3)CC1C1(O)c3ccccc3C(=O)C1C2c1ccc([N+](=O)[O-])cc1,1.1139,363.38,697.9447414,0.520642937
KIVWOE,O=CC1C(c2ccccc2)C([N+](=O)[O-])C(c2ccccc2)CC1(O)c1ccccc1,1.074,322.417,620.2707572,0.51980042
WAHDOA,CC(=O)OCC(OC(C)=O)C(OC(C)=O)C(OC(C)=O)C(OC(C)=O)C1C([N+](=O)[O-])C2(C)C=CC1(C)O2,1.1139,402.076,788.8998511,0.509666721
VEFDAN,COC(=O)C1C(=O)NC(c2ccccc2OC)C([N+](=O)[O-])C1c1ccccc1OC,1.0868,320.918,632.7984628,0.507140929
XOVJIE,CC(C)(C)c1cc(/C(=C/c2ccccc2)c2ccc([N+](=O)[O-])cc2[N+](=O)[O-])cc(C(C)(C)C)c1O,1.0298,384.029,764.6943221,0.502199361
DIDHIJ,CC(C)(C)N1CC(CO)([N+](=O)[O-])C1,1.232,222.368,736.3756261,0.501461873
HIBWUK,CC(C)(C)c1cc(C(C)(C)C)c([N+](=O)[O-])cc1[N+](=O)[O-],1.2301,222.363,737.5130245,0.500677257
ATOPOP,Cc1cccc(C)c1/N=C/c1ccc([N+](=O)[O-])cc1,1.2234,222.501,741.5520446,0.498259243
LOSDEF,COc1ccc(C2c3cc4c(cc3OC(=O)C2(Cc2ccccc2O)[N+](=O)[O-])OCO4)cc1,1.0749,338.024,693.8262509,0.487188254
KETYEO,Cc1cc(=O)oc2cc([N+](=O)[O-])c(O)c([N+](=O)[O-])c12,1.652,189.679,534.8046748,0.354669675
MEJDOX,O=C1NC2C(N1)N(Cc1ccc([N+](=O)[O-])cc1)C(=O)N2Cc1ccc([N+](=O)[O-])cc1,1.471,306.845,930.4623622,0.329776907