name,smiles,Density,Vint,Veff,pc
IQOPIO,CC(C[C@@H](C[N+](=O)[O-])c1ccccc1)=C(C#N)C#N,1.2176,212.521,347.9142162,0.610843105
KUNLAG,Cc1cc(C)nc(NC(=O)Cc2cccc([N+](=O)[O-])c2)c1,1.2601,227.016,375.7288258,0.604201712
ZEDLUS,COC(=O)/C=C/c1cc([N+](=O)[O-])cc2cnn(C(=O)N(C(C)C)C(C)C)c12,1.3194,294.197,470.9174384,0.62473159
WIRKIU,CCOC(=O)CC(O)c1cccc2ccc(-c3ccc([N+](=O)[O-])cc3)nc12,1.3645,286.76,445.5708919,0.643578845
QECBAB,CC1([N+](=O)[O-])CC1C(O)CO,1.4064,125.154,190.181216,0.658077609
ZURYIW,CC(COc1ccc([N+](=O)[O-])cc1OCC(C)(c1ccc[nH]1)c1ccc[nH]1)(c1ccc[nH]1)c1ccc[nH]1,1.354,391.117,612.2658622,0.63880256
TICTOO,Cc1cc([N+](=O)[O-])cc2c1-c1c(C)cc([N+](=O)[O-])cc1COC2,1.4135,239.996,368.9977396,0.650399648
GALYIE,O=[N+]([O-])CC(C[N+](=O)[O-])c1c[nH]c2ccccc12,1.4524,189.58,284.7795866,0.665707828
ROKZUM,O=C1C=C(Nc2ccc([N+](=O)[O-])cc2)CC1,1.3922,169.448,260.1103416,0.651446609
JOFHES,C=C1CCC2C(C)(CO)C(O)CCC2(C)C1CC(C[N+](=O)[O-])C1=CCOC1=O,1.2845,311.033,508.3480403,0.611850495
HABZOZ,CC(=O)CCC1([N+](=O)[O-])CCCCCC1=O,1.2735,180.516,296.1511014,0.609540194
HACVAL,O=[N+]([O-])c1ccc([C@H]2N[C@H]2CO)cc1,1.3603,150.73,236.9118705,0.636228145
EYIFEZ,CCCCNc1ccc([N+](=O)[O-])c2nonc12,1.4009,181.332,279.8576739,0.64794364
XESTEV,CC(=O)OC1C(C)OC(NNc2ccc([N+](=O)[O-])cc2[N+](=O)[O-])C(OC(C)=O)C1OC(C)=O,1.3846,345.466,563.8418313,0.612700195
DUWWIB,CC1(CCCn2c3ccccc3c3ccccc32)c2cc([N+](=O)[O-])ccc2-c2ccc([N+](=O)[O-])cc21,1.335,372.854,593.5480169,0.628178327
PEHQEB,COc1ccc(N2CCCC(CO)C2c2ccc([N+](=O)[O-])cc2)cc1,1.2676,270.811,448.2388006,0.604166796
AHADOE,COc1cccc([C@@H](C/C([O-])=C2/C=CC=C[N+]2=O)C[N+](=O)[O-])c1,1.3693,247.435,383.3531683,0.645449211
MOTJOU,COc1ccc(N(C)[N+](=O)[O-])cc1,1.3614,141.884,222.0831625,0.63887779
NIJPAZ,C/C(=C\[N+](=O)[O-])c1cc2ccccc2o1,1.4535,160.474,231.9907249,0.69172593
WOGDUR,CC(=O)C(C(C)=O)C1C2CC(O[N+](=O)[O-])C1C1CC=CC12,1.355,227.932,359.2365842,0.634489944
NOSNUE,O=C(OCCO[N+](=O)[O-])c1cccnc1,1.4528,158.645,242.3727556,0.65454964
IJESUL01,C/C(=N\C(=C(\C#N)[N+](=O)[O-])N(C)C)N(C)C,1.2704,222.5,714.1174208,0.517398805
VENVUG,CCCCCC1(O)C(=O)C(C)(C)C(=O)C(C)(C)C1OC(=O)c1cc([N+](=O)[O-])cc([N+](=O)[O-])c1,1.2999,358.591,592.9813411,0.604725605
BZOCYX10,N#C/C(=N/O[C@@](C#N)(c1ccccc1)[N+](=O)[O-])c1ccccc1,1.343,243.882,378.4576522,0.644410276
HIQVEI,COC(=O)C1=C(C)NC(=O)C[C@H]1c1ccccc1[N+](=O)[O-],1.3974,219.951,344.7287139,0.638040845
XAYSAR,COC1OC(CO)C(O)C1OC(=O)c1ccc([N+](=O)[O-])cc1,1.491,231.713,348.6923273,0.664519927
TOFFEC,Cc1ccc(N2C=C([N+](=O)[O-])N(c3ccc(C)cc3)CC2)cc1,1.2471,249.131,411.6516039,0.605198662
MOGLIF,CCCCCC(O)C1C2C(CCC3(C)OC23)CN1C(=O)c1ccc([N+](=O)[O-])cc1,1.1834,319.481,564.4068049,0.566047392
YEYMAR,N/C(=N\O)c1ccc([N+](=O)[O-])cc1,1.4529,137.172,206.9306487,0.662888755
KOHQOO01,O=C(NC1CCCCC1)N(C(=O)c1ccc([N+](=O)[O-])cc1)C1CCCCC1,1.2695,294.741,488.1734381,0.603762878
SUSDUG,CCN(CCOCc1ccc(C(=O)c2ccccc2)cc1)c1ccc(/N=N/c2ccc([N+](=O)[O-])cc2)cc1,1.285,410.325,656.7589716,0.624772584
FAGVIW,CCC(CO[N+](=O)[O-])C(=O)NC(C)(C)c1ccccn1,1.2271,221.917,380.4555664,0.583292819
QOVLIX,C[C@H]([C@@H]1CC[C@@H](C=O)ON1c1ccccc1)[N+](=O)[O-],1.3578,222.503,668.1505166,0.553001865
LOBWIJ,CC1(C)Cc2ccc([N+](=O)[O-])cc2C(=O)N1O,1.4479,180.057,270.7603848,0.665004964
AMOLIZ,CC1(C)CC2C(c3ccc([N+](=O)[O-])cc3)OC1OC2(C)C,1.2985,229.581,372.3363919,0.616595651
TMANIA10,C[N+](C)(C)[N-][N+](=O)[O-],1.3536,94.469,146.0747434,0.646716864
LOGMUR,COc1ccc(C2C([N+](=O)[O-])=C3NCCN3C(O)(c3ccccc3)C2C#N)cc1,1.311,304.427,496.7213765,0.612872758
MUNJEL,CC(C)(C)NC(=O)C(c1ccccc1)N(Cc1ccccc1)c1ccccc1[N+](=O)[O-],1.2288,340.824,563.811055,0.604500385
BENVEW,CC(C)([N+](=O)[O-])[C@](C)(CO)[N+](=O)[O-],1.4218,145.587,224.3347281,0.648972191
VINYOH,COc1ccc2c(c1)C1c3c(c4ccccc4oc3=O)NC(c3ccc([N+](=O)[O-])cc3)(N2C)C1(C)C,1.3779,371.942,582.3120301,0.638733155
DUHXIO,CCCCCCCCCCCCOc1ccc([N+](=O)[O-])cc1,1.1265,258.854,452.8724399,0.571582585
JUXBOV,CONC(=O)Nc1ccc([N+](=O)[O-])cc1,1.4782,159.175,237.1026135,0.671333807
BEBVUZ,O=[N+]([O-])c1cccc2c1C=C/C2=C\N1CCCC1,1.3378,192.736,300.5235755,0.641334044
VAFCOV,O=C1c2ccccc2C(=O)c2cc(CO[N+](=O)[O-])ccc21,1.5358,215.437,306.0487231,0.7039304
CUKSIK,O=[N+]([O-])c1cnn([C@@]23C[C@@H]4C[C@@H](C[C@@](O)(C4)C2)C3)c1,1.3688,198.018,319.2202528,0.620317785
TANHAR,N#C[C@@]1([N+](=O)[O-])C=C1c1ccccc1,1.367,150.839,226.0006476,0.667427291
SECZIK,COc1ccc([C@@H](C[N+](=O)[O-])[C@H]2CCc3ccccc3C2=C(C#N)C#N)cc1,1.2542,302.277,494.0525199,0.611831714
WIKBAT,O=C(O)/C=C/c1ccc([N+](=O)[O-])o1,1.6137,135.585,188.3359063,0.719910519
POQSOE,CC(=O)OC1CCC2(C)C(=CCC3C2CCC2(C)C3CC3OC4(OCC(C)C=C4N[N+](=O)[O-])C(C)C32)C1,1.2221,404.01,698.8410924,0.578114259
MUDWEN,CCOC(=O)C(C(NC(=O)c1ccccc1)C(=O)OC)(C(NC(=O)c1ccccc1)C(=O)OC)[N+](=O)[O-],1.3597,392.736,629.156963,0.624225787
PAZQUE,N#CC1=C(N)C(C#N)(C#N)C(c2cccc([N+](=O)[O-])c2)C2=C1CCCC2,1.2611,276.185,454.4528963,0.607730751
HIVLAA,N/C(=N\[N+](=O)[O-])NCCC[C@H]([NH3+])C(=O)[O-],1.5917,163.574,228.5808064,0.71560689
PEVPIP,CC1([N+](=O)[O-])CC2CC3CC2C1C3O,1.3732,151.107,238.3577659,0.633950396
HEDMOT,CC(=O)CC/C(=C\c1ccccc1)[N+](=O)[O-],1.2942,179.253,281.115821,0.63764821
IGEKOW,C=C1CC2C(CC(C)N2C(=O)OC)Oc2cccc([N+](=O)[O-])c21,1.3527,244.386,390.5320336,0.625777091
EGAMEF,CC(C)(C)NC(=O)C1(C)CC(C)(C)Nc2ccc([N+](=O)[O-])cc2N1,1.1707,267.039,474.0525624,0.563310951
JAPWON,O=[N+]([O-])CC(OCc1ccco1)(OCc1ccco1)OCc1ccco1,1.3963,273.833,431.8242847,0.634130617
JAYNIH,CC(C)(COC(=O)/C=C/c1ccc(O)c(O)c1)[N+](=O)[O-],1.3905,217.382,335.6907226,0.647566303
TUJRUN,CN1C(=O)C([C@@H](C[N+](=O)[O-])c2ccccc2)C(=O)N(C)C1=O,1.3856,231.697,365.6545928,0.63364991
FEKHOU,O=C(CC(CC(=O)c1ccccc1)C[N+](=O)[O-])NCc1ccccc1,1.2846,274.229,439.7013197,0.623671087
NMHXNT,O=[N+]([O-])[C@@]12C[C@@H]1[C@H]1[C@H](CO)C[C@@]([N+](=O)[O-])(C2)N1O,1.5811,186.353,272.107375,0.684850971
BORHIA,O=C(NCCc1ccccc1)N/N=C/c1ccc([N+](=O)[O-])o1,1.4089,234.584,356.0719419,0.658810685
COMLOF,CCOC(=O)/C(=C(/C)N)C(C[N+](=O)[O-])C(OC(C)=O)C(OC(C)=O)C(OC(C)=O)C(COC(C)=O)OC(C)=O,1.252,429.402,745.679702,0.575853143
VABNUH,COCC1CCCN1C(=O)C1(C)C(C)=CCC/C1=N\Nc1ccc([N+](=O)[O-])cc1[N+](=O)[O-],1.3431,342.369,550.4375694,0.621994244
GIVGEZ,CCOc1nc2c(c(-c3cccc([N+](=O)[O-])c3)c1C#N)CCCCCC2,1.2745,281.435,457.5390027,0.615106031
PERTUB,CCOC(=O)C1CCC2CC=CC1C2/C=N/Nc1ccc([N+](=O)[O-])cc1[N+](=O)[O-],1.3705,307.026,487.2796961,0.63008166
SALYAI,COc1ccc(C2OCC3(C#N)C(c4ccc([N+](=O)[O-])cc4)C23)cc1,1.3612,265.787,410.0396256,0.648198329
VAVPEP,CC1=CC2(C)C(C(C)=C1)C(C(=O)NC(CO)c1ccccc1)C2c1ccc([N+](=O)[O-])cc1,1.1768,348.879,609.8907794,0.57203521
SEBSAT,CC1CC([N+](=O)[O-])C2C3C4C=CC(C4)C3C(=O)C23OC13,1.3643,210.545,334.8656658,0.628744663
SATROU,COC(N(C)[N+](=O)[O-])N(C)[N+](=O)[O-],1.5166,140.997,212.4914527,0.663541983
AKUPUS,O=C1N[C@@H]([C@H](CO)[N+](=O)[O-])c2ccccc21,1.4752,167.383,249.9725954,0.669605401
WALDIA,O=[N+]([O-])c1ccc(CNCC2CC3c4ccccc4C2c2ccccc23)cc1,1.2875,297.865,477.43782,0.623882289
JIZJAD,CC(=O)CC1C(=O)OC(C(C)COCc2ccccc2)C(C)C1OC(=O)c1cc([N+](=O)[O-])cc([N+](=O)[O-])c1,1.3562,405.487,646.7234925,0.626986656
QAQDAN,CCN(CC)[C@H]1CN=NN1c1ccc([N+](=O)[O-])cc1,1.3019,208.278,335.6381719,0.620543244
LAKYUS,CCNc1c(-c2ccc([N+](=O)[O-])cc2)oc(C(=O)OC)c1C(=O)OC,1.42,264.115,407.0759182,0.648810181
FAGLEG,O=[N+]([O-])/C(=N/OC1CCCCC1)N(Cc1ccc2ccccc2c1)Cc1ccc2ccccc2c1,1.2242,375.784,633.7747206,0.592929929
BANYOG,COC1(OC)C(=O)C2C=C(C)C1CC2(CO)[N+](=O)[O-],1.371,205.025,328.3719463,0.624368197
FOKTOO,O=C1N[C@H](c2ccc([N+](=O)[O-])cc2)N[C@@H]2CCCC[C@H]12,1.3591,212.737,336.1606076,0.632843335
VABWOK,CC1(C)[C@H]2CC[C@]1(C)C(=N/[N+](=O)[O-])/C2=N/[N+](=O)[O-],1.3332,192.38,316.5023695,0.607831152
GAZXEK,CC1(C)OCC2(OCC(O)C(C)([N+](=O)[O-])C2O)O1,1.4351,192.824,304.4419855,0.633368619
HIFPUJ,CC1(c2ccccc2)C/C(=C\Cc2ccccc2)C(C(=O)c2ccccc2)=CN1c1ccc([N+](=O)[O-])cc1,1.2436,407.661,667.9388179,0.610326858
NANGIT,CC1(C)C[C@@]2([N+](=O)[O-])[N-][N+](=O)C(C)(C)[C@@]2([N+](=O)[O-])C1,1.4207,203.355,318.0610283,0.639358431
OJOLAC,CC1(C)OCC(N=O)([N+](=O)[O-])CO1,1.485,140.038,212.5332847,0.658899147
OVEKIL,CC1(C)CC(=O)C2=C(C1)Nc1ccccc1NC2c1ccc([N+](=O)[O-])cc1,1.3256,286.368,454.9341121,0.629471373
LOQHAD,C=C1C(C(C)OC(=O)c2cc([N+](=O)[O-])cc([N+](=O)[O-])c2)CC2CC1C2(C)C,1.277,291.712,486.5386171,0.599565974
HOBRUO,O=C(Nc1cccc2cccnc12)C(=C=Cc1ccc(-c2ccccc2)cc1)CC[N+](=O)[O-],1.3027,352.023,554.7124119,0.634604513
NISGEB,O=[N+]([O-])C(CCc1nnn[nH]1)(CCc1nnn[nH]1)CCc1nnn[nH]1,1.4984,259.633,386.9419282,0.670986991
DUXSIY,CO/N=C(/C#N)c1ccc([N+](=O)[O-])cc1,1.4043,160.706,242.472363,0.66278069
EGAQEL,CN(C)/C(Cc1cccc([N+](=O)[O-])c1)=N/O,1.3167,176.474,281.3645514,0.627207653
LAJFAF,COCCNC(=O)Nc1ccc([N+](=O)[O-])cc1,1.3751,183.915,288.7308996,0.6369772
KEFTIY,CC(C)C1=C[C@H]([N+](=O)[O-])[C@@](C)([N+](=O)[O-])[C@@H](O[N+](=O)[O-])[C@@H]1[N+](=O)[O-],1.5081,241.406,367.8580566,0.65624769
OBAHIK,CCOC(=O)C1=CC(C#N)(C#N)C2(C(=O)N(Cc3ccccc3)c3ccccc32)C1c1ccc([N+](=O)[O-])cc1,1.3053,410.409,659.200849,0.622585667
TAXSER,CCC/C(=N\Nc1ccc([N+](=O)[O-])cc1[N+](=O)[O-])[N+](=O)[O-],1.4931,219.287,330.3971546,0.66370729
JUKSIR,COc1ccc2c3c(cccc13)OC([N+](=O)[O-])=C2,1.5095,184.445,267.3826259,0.689816698
DNCOOC,O=[N+]([O-])C1=CC=C([N+](=O)[O-])C=CC=C1,1.4505,147.26,222.1377426,0.662922015
MANXUW,CCCCO[C@@H]1CNc2ccc([N+](=O)[O-])cc2O1,1.3282,195.015,315.2051937,0.618692217
ISPCHX,C=C(C)C1CC=C(C)C(=O)C1C(C)C[N+](=O)[O-],1.1906,195.583,330.7482454,0.591334958
KEQXOV,CCN(CC)C(=C([N+](=O)[O-])[N+](=O)[O-])N(CC)CC,1.2686,222.366,715.1306727,0.516354554
POWXUV,Cc1c(CO)cccc1[N+](=O)[O-],1.3454,131.754,206.1966097,0.638972679
FUFWUZ,O=[N+]([O-])/C=C/c1ccc(O)cc1,1.4419,129.678,190.0754076,0.682245019
RAHYIJ,COc1nc(OC)c([N+](=O)[O-])c(C(O)C(O)C2OC(C)(C)OC2C2COC(C)(C)O2)n1,1.3987,330.483,528.5255673,0.625292361
SAMROP,CN/C(=N\[N+](=O)[O-])NC[C@@H]1CCOC1,1.3939,154.333,240.7763856,0.640980633
BUYJAG,COC(=O)N[C@@H]1[C@H](C)O[C@H](OC)C[C@@]1(C)[N+](=O)[O-],1.2815,198.576,339.6571495,0.584636597
DUPHOL,CC(CCC(=O)O)([N+](=O)[O-])[N+](=O)[O-],1.5887,139.605,200.7293351,0.695488778
HNFMNO,O=C1/C(=C/c2ccc([N+](=O)[O-])o2)CCc2ccccc21,1.425,209.21,313.5548507,0.667219785
MITJIK,COc1ccc(/C(CC23CC4CC(CC(C4)C2)C3)=N/Nc2ccc([N+](=O)[O-])cc2[N+](=O)[O-])cc1OC,1.3592,378.89,603.8081059,0.627500685
BAQLEK,COC1OC(C(CCC#N)(CCC#N)[N+](=O)[O-])C(OC(C)=O)C(OC(C)=O)C1OC(C)=O,1.336,349.796,565.7400616,0.618298091
PAMQAW,O=[N+]([O-])C1([N+](=O)[O-])CCCCCCc2oncc21,1.4596,188.494,290.2130826,0.649502077
OZAZEV,COCc1c(C#N)c(NN)nc(C)c1[N+](=O)[O-],1.4446,182.533,272.5358756,0.669757696
SUGBAZ,O=[N+]([O-])CC1CC2(O)c3ccccc3NC3C=CC2(O3)c2ccccc21,1.406,268.079,413.5279706,0.648272956
QONRUI,CN(CO)[N+](=O)[O-],1.5304,78.638,115.059096,0.683457482
XACVIH,CC1(C)COC(C2(c3ccc([N+](=O)[O-])cc3)OC2c2ccccc2)=N1,1.2552,266.214,447.3335936,0.595112918
QAZDOK,CC1=C(C)C[C@@]2([N+](=O)[O-])[C@H](O)Nc3[n-]o[n+](=O)c3[C@H]2C1,1.503,206.535,311.6761905,0.662658895
FORZUK,O=C1NC(Cc2ccc(/N=C/c3ccc([N+](=O)[O-])cc3)cc2)CO1,1.42,253.537,380.1911611,0.666867161
APOREE,CCOC(=O)/C(=C(/C(=O)c1ccc2ccccc2c1)N1CCCCC1)[N+](=O)[O-],1.2977,300.173,489.0213908,0.613823865
MEJJUH,CC(C)OC(=O)NN(C(=O)OC(C)C)/C(=C\c1ccco1)[N+](=O)[O-],1.3048,260.658,434.1413943,0.600398864
BEQTUP,O=C(OCc1ccc([N+](=O)[O-])cc1)N1C=CCC1,1.4187,191.808,290.3793341,0.660542874
JEMGIS,COc1nc2c([n-]o[n+]2=O)[nH]c1=O,1.7107,128.254,178.6339023,0.717971216
FUJTUZ,O=[N+]([O-])c1cc([N+](=O)[O-])on1,1.7193,107.341,153.5633597,0.699001378
KUBPEC,O=[N+]([O-])N1CC2(CN=C1C([N+](=O)[O-])([N+](=O)[O-])[N+](=O)[O-])CN=C(C([N+](=O)[O-])([N+](=O)[O-])[N+](=O)[O-])N([N+](=O)[O-])C2,1.8058,352.755,496.5965742,0.710345214
IKIMIY,CN(c1nc(N(C)[N+](=O)[O-])c([N+](=O)[O-])nc1[N+](=O)[O-])[N+](=O)[O-],1.7223,222.451,526.7460788,0.701290708
AJIYOK,Nc1nc(Cn2nc([N+](=O)[O-])c([N+](=O)[O-])c2[N+](=O)[O-])no1,1.7494,203.184,284.7911861,0.713449046
POTGUC,O=[N+]([O-])C1([N+](=O)[O-])[C@H]2C[C@H]3C[C@@H]1C([N+](=O)[O-])([N+](=O)[O-])[C@@H](C2)C3([N+](=O)[O-])[N+](=O)[O-],1.777,269.869,379.4388481,0.711231866
YOYSUC02,O=[N+]([O-])OCC(O[N+](=O)[O-])C(CO[N+](=O)[O-])O[N+](=O)[O-],1.758,200.481,285.266352,0.702785304
KOFKIZ,O=NN1CN([N+](=O)[O-])CCN([N+](=O)[O-])C1,1.7077,153.289,213.9862729,0.716349689
JUVNAP,O=[N+]([O-])C1([N+](=O)[O-])CCC([N+](=O)[O-])([N+](=O)[O-])CC1,1.7216,182.454,254.6789117,0.716407961
UZEWAZ,O=[N+]([O-])N1C(C([N+](=O)[O-])([N+](=O)[O-])[N+](=O)[O-])=N[C@@H]2OCCO[C@@H]21,1.7815,211.675,300.1612943,0.705204182
JEZZUJ,O=C1N([N+](=O)[O-])C23C4C5C6C4C2(C6C53)N1[N+](=O)[O-],1.7344,172.265,239.3946958,0.719585701
KEMTIF,O=[N+]([O-])N1CN([N+](=O)[O-])CC2(C1)CN([N+](=O)[O-])CN([N+](=O)[O-])C2,1.7373,229.542,321.2403214,0.714549155
FAYCAJ,O=[N+]([O-])N1CN([N+](=O)[O-])CC([N+](=O)[O-])([N+](=O)[O-])C1,1.8007,175.151,245.3271702,0.713948642
DIBRUE,O=[N+]([O-])Nc1nonc1-c1nnc(/N=N/c2nnc(-c3nonc3N[N+](=O)[O-])o2)o1,1.7666,282.437,396.6959672,0.711973459
ZILNOX,CC([N+](=O)[O-])([N+](=O)[O-])C(C)([N+](=O)[O-])[N+](=O)[O-],1.7211,162.369,229.6517494,0.7070227
DAFGAS,O=[N+]([O-])C1([N+](=O)[O-])C2C3C4C2C2C1C3C4C2([N+](=O)[O-])[N+](=O)[O-],1.7163,211.134,301.9076004,0.699333173
JUVMIW01,O=[N+]([O-])C1([N+](=O)[O-])C[C@H]2C[C@@H]1CC2([N+](=O)[O-])[N+](=O)[O-],1.7131,189.392,267.5748143,0.707809517
MINHAV,O=[N+]([O-])Nc1nnc2nncn2n1,1.7409,124.715,173.633831,0.718264403
CUFZIM,C[C@]12[C@]3([N+](=O)[O-])[C@]4([N+](=O)[O-])[C@@]1([N+](=O)[O-])[C@]1([N+](=O)[O-])[C@@]2([N+](=O)[O-])[C@@]3([N+](=O)[O-])[C@]41[N+](=O)[O-],1.8197,282.036,395.1180352,0.713801889
SAWMUA,O=C1c2noc([N+](=O)[O-])c2[C@@H]2CO[C@H]1O2,1.7225,144.662,204.3882251,0.707780499
SICNUN,O=C(O)CN(c1ccc([N+](=O)[O-])cc1[N+](=O)[O-])[N+](=O)[O-],1.7013,200.418,279.1761747,0.717890774
LUZKOJ,O=[N+]([O-])OCC1=C/C(=C2/C(c3cc(CO[N+](=O)[O-])on3)=NO[N+]2=O)[N-]O1,1.7114,254.936,359.0312877,0.71006625
PAGNUJ,Nc1c([N+](=O)[O-])cc([N+](=O)[O-])c(-n2cnc([N+](=O)[O-])c2)c1[N+](=O)[O-],1.7293,232.438,325.5516948,0.713981846
BUGKIY,Nn1cc([N+](=O)[O-])nc1[N+](=O)[O-],1.7495,222.499,518.5565997,0.71251979
UZEWED,O=[N+]([O-])N1CCCN=C1C([N+](=O)[O-])([N+](=O)[O-])[N+](=O)[O-],1.7174,182.463,268.8295303,0.678731238
KUGYAM,CC(=O)N1CN(C(C)=O)[C@H]2[C@@H]1N([N+](=O)[O-])CN([N+](=O)[O-])CN2[N+](=O)[O-],1.7018,253.153,353.3272997,0.71648299
KOVHAE,O=[N+]([O-])C(=C1NCCN1)[N+](=O)[O-],1.701,121.414,169.9053528,0.714597851
LEFRAP,O=[N+]([O-])C1CN([N+](=O)[O-])CN([N+](=O)[O-])C1,1.7237,153.075,212.9479691,0.718837567
JEXMAA,O=[N+]([O-])N1C[C@H]([C@H]2CN([N+](=O)[O-])CN2[N+](=O)[O-])N([N+](=O)[O-])C1,1.7113,216.767,312.5205526,0.693608782
VIKYUJ,O=[N+]([O-])C1([N+](=O)[O-])[C@H]2[C@H]3[C@@H]4C[C@H]5[C@@H]([C@@H]41)C([N+](=O)[O-])([N+](=O)[O-])[C@@H]2[C@@H]35,1.7288,222.484,313.1874149,0.710386144
NABMUY,CC(CN(CC(C)([N+](=O)[O-])[N+](=O)[O-])[N+](=O)[O-])([N+](=O)[O-])[N+](=O)[O-],1.7408,223.525,311.0246569,0.718672925
UZOPIL,O=[N+]([O-])OCCn1cc([N+](=O)[O-])c([N+](=O)[O-])n1,1.7241,170.411,237.9209914,0.716250378
OGOYOB,NC(=[NH2+])C(c1nn[n-]n1)([N+](=O)[O-])[N+](=O)[O-],1.7403,148.036,206.1418349,0.718126915
JEXMEE,O=[N+]([O-])N1CN([N+](=O)[O-])CC2(C1)CN([N+](=O)[O-])CN2[N+](=O)[O-],1.7107,216.746,312.630164,0.693298424
EWUKIQ01,O=[N+]([O-])N=C1NCN([N+](=O)[O-])CN1,1.7328,130.247,182.1265088,0.715145757
ZIZRAD01,Cn1nc([N+](=O)[O-])c([N+](=O)[O-])c1[N+](=O)[O-],1.7106,148.074,210.6652856,0.702887519
ACOWUK,O=C(N1CC([N+](=O)[O-])([N+](=O)[O-])C1)N1CC([N+](=O)[O-])([N+](=O)[O-])C1,1.7315,220.113,306.9307415,0.717142241
KIBSAS01,Nc1nc(-c2nonc2[N+](=O)[O-])no1,1.737,135.442,189.3043393,0.715472241
PIGSOP,O=[N+]([O-])c1cc([N+](=O)[O-])c(-n2cc([N+](=O)[O-])nc2[N+](=O)[O-])c([N+](=O)[O-])c1,1.7469,251.855,350.7651655,0.718015997
RIKZOD,O=c1[nH]nnn1Nc1c([N+](=O)[O-])cc([N+](=O)[O-])cc1[N+](=O)[O-],1.7119,212.027,302.6700747,0.700521848
PABHAB01,Cc1nc2c([N+](=O)[O-])cc([N+](=O)[O-])cc2n1-c1c([N+](=O)[O-])cc([N+](=O)[O-])cc1[N+](=O)[O-],1.7102,301.345,420.4666382,0.71669182
JEHLEN,CC(=O)O[C@@H]1N([N+](=O)[O-])[C@H]2[C@H](N([N+](=O)[O-])CCN2[N+](=O)[O-])N1[N+](=O)[O-],1.7564,222.367,516.5194553,0.714905579
LOLFAT,O=[N+]([O-])OC1CN([N+](=O)[O-])CN([N+](=O)[O-])C1,1.7598,160.912,223.6729001,0.71940767
NUSTON,Nc1nonc1-n1nc([N+](=O)[O-])cc1[N+](=O)[O-],1.7309,164.269,231.2306266,0.710411948
KIZCUT,O=C(N[N+](=O)[O-])OCC([N+](=O)[O-])([N+](=O)[O-])[N+](=O)[O-],1.7295,222.366,524.5532068,0.703953335
KABXAM,CC(C1=NOC(C(C)([N+](=O)[O-])[N+](=O)[O-])=NO1)([N+](=O)[O-])[N+](=O)[O-],1.7309,218.05,308.9360135,0.705809587