name,smiles,Density,Vint,Veff,pc
MNPYDO29,CC1=C[N+](=O)C=CC1=[N+]([O-])[O-],1.8048,116.322,141.7305189,0.820726551
WAFHAO,O=C1NC(=O)C(=O)NC1=O,1.9422,99.146,121.4126345,0.816603646
ALOXAN,O=C1NC(=O)C(=O)C(=O)N1,1.9309,99.525,122.1231647,0.814955952
JOYXIG,NC(=O)c1nnc(C(N)=O)nn1,1.8058,122.817,154.5279187,0.794788418
OLUVOJ,O=c1[nH]nc(O)c2cc3c(=O)[nH]nc(O)c3cc12,1.8272,175.778,223.6056288,0.786107223
ENAJUB,O=[n+]1nc2[n-]onc-2[nH]1,1.9336,85.747,109.0803828,0.786090018
VIPKIO01,NNC(=O)C(=O)NN,1.7578,87.363,111.5213873,0.783374401
EREFEP,Oc1nnc2nncn2n1,1.8421,97.105,124.4291688,0.780403831
GOKNOK,O=C1N=C2NC(=O)N=C3NC(=O)N=C(N1)N32,1.8878,151.036,194.4284252,0.776820569
GOHVUU,O=c1[nH]c(=O)n2c(=O)[nH]c(=O)n12,1.9188,113.99,147.1308256,0.77475267
HXOXAM10,NC(=O)C(=O)NO,1.7679,75.432,97.70872335,0.772008859
URICAC,O=c1[nH]c(=O)c2[nH]c(=O)[nH]c2[nH]1,1.8508,115.933,150.7606772,0.768986994
XERBEB,O=c1nc[nH]c(=O)[nH]1,1.7787,81.013,105.5181915,0.767763348
ALXANM01,O=C1NC(=O)C(O)(O)C(=O)N1,1.8671,109.122,142.3147997,0.766764948
OTAKEB,n1onc2c1Nc1nonc1-c1nonc1-2,1.8697,148.928,194.5204005,0.765616355
OROMIT,O=c1c2nc[nH]c2nc2n1C(O)C(O)N2,1.8091,146.888,191.8946155,0.765461812
DOLBIR44,[NH3+]CC(=O)[O-],1.6288,58.437,76.49692188,0.76391309
TUPWEI,O=c1cc(C(O)O)[nH]c(=O)[nH]1,1.7619,113.705,148.9467028,0.763393871
VUXJIH,[NH3+]C(C(=O)[O-])C([NH3+])C(=O)[O-],1.7117,109.358,143.628664,0.761393979
GIMREA,O=Cc1c[nH]c(=O)[nH]c1=O,1.7202,102.811,135.1708243,0.760600525
TRURET10,NC(=O)NC(=O)NC(N)=O,1.7482,105.292,138.725918,0.758992995
AZURAC01,O=c1cn[nH]c(=O)[nH]1,1.7461,81.479,107.4882351,0.758027146
APITEA,Nn1nn[nH]c1=O,1.7943,70.825,93.50535662,0.757443237
WOLJUF,Nc1nc2[nH]c(=O)cnc2c(=O)[nH]1,1.7422,129.021,170.658366,0.756019193
PIMBAP01,O=C(O)c1ccc[nH]c1=O,1.6242,107.26,142.1426804,0.754593903
DUMQAF,Nn1nc2c(n1)C(=O)c1nn(N)nc1C2=O,1.7858,154.355,204.6186162,0.754354627
WEPZOJ,O=c1[nH][nH]c(=O)c2cc3[nH]cnc3cc12,1.703,148.482,197.0186111,0.753644537
IXAQAB,c1nc(-c2nonc2/N=N/c2nonc2-c2ncon2)no1,1.7856,211.535,280.882872,0.753107509
AKIHAF,O=C([O-])c1c[nH+]ccc1O,1.6539,105.105,139.5901455,0.752954298
SAGMOE,O=C([O-])c1c[nH+]c[nH]1,1.6558,84.524,112.3520333,0.752313932
ZEVGAL,O=C1NN=CC2NN3C(=O)NN=CC3NN12,1.7868,156.475,208.2506727,0.751378125
CXGLUA10,[NH3+]C(CC(C(=O)O)C(=O)O)C(=O)[O-],1.7048,139.791,186.0898546,0.751201618
OXAZDO,O=C1CNC(=O)O1,1.7401,72.39,96.39638704,0.750961755
SILGUQ,O=C(O)C1=C/C(=C(\[O-])O)C=C[N+]1=O,1.7078,133.518,177.9585736,0.750275737
LENPEZ03,O=C1NC(=O)c2ccc3c4ccc5c6c(ccc(c7ccc1c2c73)c64)C(=O)NC5=O,1.6663,291.412,388.7297442,0.749651922
JIRREK,NC1=N/C(=C2/C(N)=NO[N+]2=O)O[N-]1,1.7935,127.735,170.3973632,0.749630145
AMMALA,[NH3+]C(C(=O)[O-])C(=O)O,1.7156,86.345,115.2061651,0.74948246
SIFTOT,Nn1c(-c2ccccc2)nc2ccccc2c1=O,1.6499,178.803,238.6277992,0.749296606
LASPRT06,[NH3+]C(CC(=O)[O-])C(=O)O,1.6673,99.241,132.5029001,0.748972286
PECBII,N#Cc1c(O)c(C#N)c(C#N)c(O)c1C#N,1.5618,167.21,223.3035713,0.74880128
ZZZRJG01,NC(=O)C(O)C(O)C(=O)O,1.7252,107.337,143.4519131,0.748243768
WUHYIH,[NH3+]C(Cc1conc1C(=O)[O-])C(=O)O,1.6819,147.71,197.5099229,0.747861159
SAPDAQ01,N(=N/c1nonc1-c1nnn[nH]1)\c1nonc1-c1nnn[nH]1,1.7898,209.581,280.2445885,0.747850301
DUHZOW,O=C(c1ccc2c(O)n[nH]c(=O)c2c1)c1ccc2c(O)n[nH]c(=O)c2c1,1.6756,259.254,346.9313305,0.747277565
AFZPYM,Nc1ncnc2nonc12,1.6809,101.101,135.3788217,0.746800709
SAZGOP,Nn1c(=O)[nH][nH]c1=O,1.7656,81.357,109.1329328,0.745485326
VOXKUR,O=[N+]1ON=C(c2ncon2)/C1=C1/N=CO[N-]1,1.7893,153.483,206.044843,0.744900954
AMTETA,[NH3+]CC#CC(=O)[O-],1.51,81.099,108.9089976,0.744649219
VICREE,[NH3+]CC(=O)[N-]O,1.5953,69.732,93.72863116,0.743977578
QEFBUY,O=C1NC(=O)c2ccc3c4c(ccc1c24)C(=O)NC3=O,1.6829,195.161,262.5075736,0.743449026
AROCAM,O=C1c2cc3nccnc3cc2C(=O)c2cc3nccnc3cc21,1.6125,238.849,321.3734469,0.743213238
CXPROL,O=C(O)C1C[NH2+]C(C(=O)[O-])C1,1.6496,118.929,160.1137693,0.742778092
REKBUE,O=C(O)CNC(=O)C(=O)NCC(=O)O,1.6955,148.238,199.8383337,0.741789612
KUSLIU,O=C([O-])c1nc2c3ccc[nH+]c3c3ncccc3c2nc1C(=O)O,1.6593,237.596,320.3053056,0.741779783
WANDUL01,O=c1[nH][nH]c(=O)c2cc3c(=O)[nH][nH]c(=O)c3cc12,1.7265,175.522,236.6476717,0.741701783
REZDUY,Nc1ncc(C(=O)O)cn1,1.6394,104.45,140.836157,0.741641935
AMUGAT,N#CC1=C(\C#N)N/C=C(C=O)\C=N\C(C#N)=C(\C#N)N/C=C(C=O)\C=N\1,1.5331,276.399,372.6921283,0.741628221
SELZIS,O=c1[nH]c(=O)c2nc(-n3c(=O)[nH]c(=O)c4[nH]cnc43)n(C3OC(CO)C(O)C3O)c2[nH]1,1.7724,301.614,406.7115767,0.741591873
UMUCAJ,On1nnc2cnccc21,1.6554,101.182,136.4658396,0.741445627
SOYVEJ,O=C(O)c1cccn(O)c1=O,1.6753,113.908,153.6616109,0.7412912
AMBNZA01,[NH3+]c1cccc(C(=O)[O-])c1,1.5529,108.574,146.5524985,0.740853968
GICTUJ,O=c1[nH]nc(O)c2ccc(Oc3ccc4c(O)n[nH]c(=O)c4c3)cc12,1.6725,248.578,335.6597532,0.740565402
HIZHII,Nc1nonc1C1=NOC(c2nonc2N)=NO1,1.7817,173.886,234.9049982,0.740239677
NTRTAC,O=C([O-])C[NH+](CC(=O)O)CC(=O)O,1.6694,140.626,190.0359316,0.739996899
XOSJUK,Nc1nc(=O)cn[nH]1,1.6627,82.797,111.8970054,0.739939373
COVXAN01,O=C(O)NC1NC(=O)NC1=O,1.7558,111.07,150.4054597,0.738470533
LOCDOX,NC(=O)c1nc[nH]n1,1.6342,84.052,113.8484585,0.738279649
RIMYUH,O=C(C/C(O)=N/O)NO,1.6704,98.334,133.2464055,0.737986137
CYURAC10,O=c1[nH]c(=O)[nH]c(=O)[nH]1,1.7775,88.949,120.5324121,0.737967477
DLASPA02,[NH3+]C(CC(=O)O)C(=O)[O-],1.6464,99.006,134.18494,0.737832427
HBIURT10,NC(=O)N(O)C(N)=O,1.7256,84.506,114.5493457,0.737725733
PARBAC02,O=C1NC(=O)C(=O)N1,1.7141,81.425,110.4482023,0.737223407
GLOXIM,O/N=C/C=N/O,1.5638,68.902,93.47620975,0.737107337
HIHWIH,O=C(O)COc1nnc(OCC(=O)O)nn1,1.7372,162.044,219.8858598,0.736945978
EBEVEP,O=C(O)CC1NC(=O)NC1=O,1.7022,113.51,154.1706002,0.736262295
DUXYUQ,O=C1CC(=O)N2C(=O)CC(=O)N12,1.7092,120.168,163.2396485,0.736144687
QNACRD05,O=c1c2ccccc2[nH]c2cc3c(=O)c4ccccc4[nH]c3cc12,1.5642,243.843,331.3236483,0.73596618
REGMAT,O=C1c2nc3ccccn3c2C(=O)c2nc3ccccn3c21,1.6128,218.264,296.602358,0.735880866
GUZYEF01,O=C(O)c1ccnc(-c2cc(C(=O)O)ccn2)c1,1.6011,186.233,253.1177217,0.735756464
YUZTOE,[NH3+]C(C(=O)[O-])C(O)C(O)C(O)CO,1.656,143.892,195.6161602,0.735583399
DINICA10,O=C(O)c1cncc(C(=O)O)c1,1.6346,124.774,169.6785127,0.735355338
RIVKAJ,Nn1cn[nH]c1=O,1.6681,73.229,99.58872426,0.735314169
WUPYIQ,O=C1c2nc3ccccc3nc2C(=O)c2nc3ccccc3nc21,1.5934,239.141,325.2257331,0.735307744
AZALIX,NNC(=O)c1cc(O)c(O)c(O)c1,1.6502,136.162,185.2083288,0.73518292
EDTAXX02,O=C([O-])C[NH+](CC[NH+](CC(=O)[O-])CC(=O)O)CC(=O)O,1.6368,217.802,296.3378294,0.734978725
AZAYIM,NC(=O)c1c(N)noc1N,1.6626,104.232,141.8781996,0.734658322
IMDIAC,O=C([O-])C[NH2+]CC(=O)O,1.6279,99.686,135.7098626,0.734552361
XESRIW,NC1C(O)C2NC(=O)NC(C1O)C2O,1.6997,145.748,198.4186975,0.734547711
MALEHY01,O=c1ccc(O)n[nH]1,1.6318,83.681,114.0044716,0.734015068
AMUHAU,COC(=O)C1=C/N/C(C#N)=C(C#N)\N=C\C(C(=O)OC)=C/N/C(C#N)=C(C#N)\N=C\1,1.5414,319.49,435.3479884,0.733872692
ALATIN03,NC(=O)NC1NC(=O)NC1=O,1.7217,111.789,152.4352964,0.733353774
CUXKAK02,CC(C)NNC(=O)c1ccncc1,1.4635,149.031,203.227328,0.733321653
HUCSAA,O=C(O)c1ccc(-c2ccc(C(=O)O)cn2)nc1,1.5931,186.548,254.3887918,0.733318472
IYAWAG,O=C(O)c1nccnc1C(=O)O,1.6691,122.531,167.1614687,0.733009832
TISJUB,O=C(O)C1=CC(=[N+]([O-])[O-])C=C[N+]1=O,1.7003,131.714,179.7155575,0.732902604
RATMEF01,NNC=O,1.5352,47.559,64.93599634,0.732398095
MUGHIF,O=C([O-])c1ccc2cccc(O)c2[nH+]1,1.5818,145.274,198.4600646,0.732006212
TAQXAL,O=C(O)Cn1ccc(=O)[nH]c1=O,1.6675,123.913,169.3291729,0.731787665
TIJJAX,O=C([O-])c1nc(-c2ccccn2)c(-c2cccc[nH+]2)nc1C(=O)O,1.598,244.845,334.6869726,0.731564178
AWABOQ,C[n+]1ccc(C(=O)O)c(C(=O)[O-])c1,1.5902,138.284,189.0522483,0.731459167
QUSVOS,Nc1nonc1-c1nnc(N)n1N,1.6942,130.501,178.4556477,0.731279742
WAFLIA,Cn1c2ccccc2[n+](=O)c2c(=O)[nH]c(=O)[n-]c21,1.6302,181.803,248.6108689,0.73127535
FUZYUU,O=C(CC(=O)NO)NO,1.666,97.577,133.5983168,0.730375969
PMELIM,O=c1[nH]c(=O)c2cc3c(=O)[nH]c(=O)c3cc12,1.6653,157.232,215.4074384,0.729928368
NEDQES,Nc1[nH][nH+]cc1C(=O)[O-],1.6393,93.915,128.688828,0.72978363
HOMCOD,O=c1[nH]nc(O)c2cccc(-c3cccc4c(O)n[nH]c(=O)c34)c12,1.6303,239.335,328.0560523,0.729555203
HIHNIV01,Nc1nccnc1C(=O)O,1.6118,104.489,143.2477949,0.729428332
SERGLY,[NH3+]C(CO)C(=O)NCC(=O)[O-],1.5998,122.698,168.2232608,0.729375946
KIXRUG,Nc1ncn(C2OC(CO)CC2O)c2nc(=O)[nH]c(=O)c1-2,1.679,212.851,291.8577872,0.72929697
DICPAG01,CN1C(=O)c2ccc3c4ccc5c6c(ccc(c7ccc(c2c37)C1=O)c64)C(=O)N(C)C5=O,1.595,317.346,435.2910029,0.729043325
MISALX,Cn1c2nc(=O)[nH]c(=O)c-2nc2ccccc21,1.6015,172.26,236.480976,0.728430688
XDHURC,O=C1CONC(=O)N1,1.7028,82.401,113.1468475,0.728265982
AZFOXM,O/N=C/N=N/C=N/O,1.5923,88.101,121.0105546,0.728043932
YABWON,O=C(O)C[n+]1cccc(C(=O)[O-])c1,1.5797,138.541,190.3088467,0.72797982
FOMHAZ,O=CNNC=O,1.5875,66.983,92.0806909,0.727438069
VODWIU,Nc1ccc(C(=O)[O-])cc1[NH3+],1.5424,119.036,163.7114068,0.727108772
UFORUE,O=C(O)Cc1nnn[nH]1,1.6589,93.153,128.1646309,0.726822988
VATNUA,O=C(O)c1ccc[n+]([O-])c1,1.5767,106.408,146.4249011,0.726706996
FADCUI,Cn1c(=O)[nH]c(=O)c2[nH]cnc21,1.6591,120.763,166.1992011,0.726616007
ALOPUR,O=c1[nH]cnc2[nH]ncc12,1.6327,100.51,138.363172,0.726421623
MIMOSN,[NH3+]C(Cn1ccc(=O)c(O)c1)C(=O)[O-],1.5952,149.74,206.1842859,0.726243513
LGLUAC01,[NH3+]C(CCC(=O)O)C(=O)[O-],1.5799,112.23,154.5645128,0.726104576
NAXREL,O=C(O)CN(CC(=O)O)c1nc(N(CC(=O)O)CC(=O)O)nc(N(CC(=O)O)CC(=O)O)n1,1.6964,336.973,464.0931308,0.726089178
QICVAZ01,N#C/C(=N\O)C(N)=O,1.5695,86.767,119.5828017,0.725580926
ZIKMOV,NC12NC(=O)NC1(N)NC(=O)N2,1.7358,119.426,164.6162533,0.725481218
JEMFUD,O=C1c2nonc2/N=N/c2nonc2C(=O)N2CCN1CC2,1.6964,215.929,297.649972,0.725446062
ATZCBX,NC(=O)c1nn[nH]c1N,1.6368,93.465,128.8967802,0.725115087
AMYGLA,N/C=C1/C=CC(=O)OC1=O,1.5857,105.565,145.5938334,0.725065049
RIRWOG,O=C(NC(CO)(CO)CO)c1cc2ccc(O)cc2oc1=O,1.6088,231.259,319.0367386,0.724866362
MEGDUY,NC(=O)c1c[n+](=O)cc[n-]1,1.5888,105.322,145.3214978,0.724751682
WOSGIU,Nc1nnco1,1.6177,63.24,87.28247018,0.724544114
WOHDAY,N#Cc1cccc(C2=C3C(=O)NC(c4cccc(C#N)c4)=C3C(=O)N2)c1,1.5134,268.747,370.9635732,0.724456576
DOVCAT,N#[N+]/N=c1\[n-]onc1N,1.6587,91.384,126.1733718,0.724273265
VABWEC,O=C(O)c1cc(C(=O)O)cc(-c2ccncc2)c1,1.5506,188.498,260.2954171,0.724169492
SAHLOE,O=C(O)Cn1c[n+](CC(=O)O)c(C(=O)[O-])c1C(=O)O,1.6957,192.885,266.3972431,0.724050286
ACXMPR,[NH3+]C(C(=O)[O-])C1CC(C(=O)O)NC1=O,1.6391,148.192,204.7093697,0.723914104
PECYON,O=c1[nH]c2cc3ccccc3cc2[nH]c1=O,1.5553,163.901,226.4157872,0.723893868
UHUMEP,O=c1cc(O)nc[nH]1,1.6269,82.733,114.3478375,0.72352046
GENNAP,O=C(O)Cn1c(=O)c2cc3c(=O)n(CC(=O)O)c(=O)c3cc2c1=O,1.6695,238.893,330.2580444,0.723352554
CAPYUN,N#CC(C#N)=C1C(=O)C(=C(C#N)C#N)c2ccccc21,1.4534,211.6,292.5399414,0.723320033
GAVWIM,O=c1c2ccccc2[nH]c2c(=O)c3ccccc3[nH]c12,1.5429,203.993,282.0665385,0.72320879
NOFBIT,Cn1c2nc3nonc3nc2[n-][n+]1=O,1.7187,134.881,186.5093536,0.72318625
CUGBIP,O=c1cc([O-])[nH]c2cccc[n+]12,1.5682,124.078,171.5906678,0.723104593
JOHKEY,[NH3+]CC(=O)NCC(=O)NCC(=O)NCC(=O)[O-],1.5924,185.54,256.6363441,0.722968528
OFOJEY,O=c1c2cccc3c(=O)c4cccc5c(=O)c6cccc1c6n(c23)c45,1.5832,244.966,338.8520203,0.722929141
JOXYEC,O=C1NC(=O)C2=C1C(=O)c1cccc3cccc2c13,1.5691,190.523,263.5651838,0.722868617
MIXPEO,O=c1c2ccccc2on2nncc12,1.5952,140.725,194.7063665,0.722755001
COFCAE,O=C(c1ccc(O)cc1)c1cnc2ncccn12,1.5445,185.764,257.0403189,0.72270374
JOHKIC,[NH3+]CC(=O)NCC(=O)NCC(=O)NCC(=O)NCC(=O)[O-],1.5965,227.807,315.2881659,0.722535841
SEPNUX,O=C(O)c1cc(C(=O)O)[nH]n1,1.6525,113.266,156.7818501,0.722443318
ADPRLA,O=C1CCn2cnc3ncnc(c32)N1,1.615,140.4,194.4033674,0.722209712
KOYZAB,O=C(O)/C=C\C(=O)NCC(=O)O,1.6097,128.91,178.5038458,0.722169315
NOFYEM,Nc1[nH]cnc2[n+](C3OC(C(=O)[O-])C(O)C3O)cnc1-2,1.6782,200.807,278.1282543,0.721994249
FUMRAM01,NC(=O)/C=C/C(=O)O,1.5533,88.777,122.9728588,0.721923527
HXURID,O=c1[nH]c(=O)n(C2OC(CO)C(O)C2O)cc1O,1.6864,184.864,256.0857607,0.721883167
VIRAZL,NC(=O)c1ncn(C2OC(CO)C(O)C2O)n1,1.6518,177.09,245.381115,0.72169368
RIKCIA,O=C1C(=O)c2c([nH]ccc2=O)-c2ncccc21,1.5839,171.029,236.9836735,0.721691066
HMGLUT,CC(C(=O)O)C(O)C([NH3+])C(=O)[O-],1.5885,133.581,185.1004202,0.72166773
CXHIMZ20,NC(=O)N1C(=O)NC(O)C1O,1.7081,112.925,156.5652448,0.7212648
PAHYON04,O=C1CNC(=O)N1,1.6379,73.144,101.4135764,0.721244656
EMOQUU,O=c1[nH]nc2oc3n[nH]c(=O)c4cccc(c5cccc1c25)c34,1.6187,224.908,311.9302146,0.721020246
BUGPEZ,c1cnc2c(c1)c1nc3nonc3nc1c1cccnc12,1.6007,204.995,284.3159548,0.721011243
DEFXUH,Nc1nc2c(ncn2CCO)c(=O)[nH]1,1.6111,144.942,201.0691963,0.720856316
HOTSOY,Nc1cc(=O)[nH]c2ncnn12,1.641,110.132,152.8535344,0.720506729
BELBUP03,On1nnc2cccnc21,1.6014,101.629,141.0675353,0.720427984
PYAZAC01,O=C(O)c1cnccn1,1.557,95.26,132.279831,0.720140019
TIDCIS,O=C1c2c(O)cccc2C(=O)c2c([N+](=O)[O-])ccc(O)c21,1.6677,208.519,283.8138728,0.734703339
NBARBA,O=c1[nH]c(O)c([N+](=O)[O-])c(=O)[nH]1,1.8673,116.995,153.8563021,0.76041734
KOBXOO,Nc1[nH][nH]c(=O)c1[N+](=O)[O-],1.8322,100.426,130.5389485,0.769318285
BOLPEX,O=C1c2c(O)ccc([N+](=O)[O-])c2C(=O)c2c([N+](=O)[O-])ccc(O)c21,1.7361,234.794,315.6607434,0.743817548
JUPSES,COc1c([N+](=O)[O-])cc([N+](=O)[O-])c(N)c1[N+](=O)[O-],1.7092,180.81,250.6869125,0.721258235
OGOYAN,NC(N)=C(c1ncn[nH]1)[N+](=O)[O-],1.7105,122.167,165.0942438,0.739983401
WUBJAG,O=[N+]([O-])O[C@H]1[C@@H]2C[C@H]3[C@@H](O[N+](=O)[O-])[C@H](C[C@@H]1C3([N+](=O)[O-])[N+](=O)[O-])C2([N+](=O)[O-])[N+](=O)[O-],1.852,289.509,392.7565571,0.73712073
JEXMII,O=[N+]([O-])N1CCN([N+](=O)[O-])[C@H]2[C@H]1N([N+](=O)[O-])CCN2[N+](=O)[O-],1.8217,217.182,293.5809528,0.739768701
BOQWUZ,O=C1O[C@H]2[C@@H](O1)N([N+](=O)[O-])CN2[N+](=O)[O-],1.9526,143.824,187.1070789,0.768672147
KUBPOM,O=[N+]([O-])C(=C1NCCCN1[N+](=O)[O-])[N+](=O)[O-],1.7922,160.317,215.9276948,0.742456868
QOYJOD06,O=c1[nH]nc([N+](=O)[O-])[nH]1,1.9145,88.598,112.7704742,0.785648909
WACQEY,O=[N+]([O-])c1cc([N+](=O)[O-])c2ccccc2c1O,1.6459,171.256,236.1178388,0.725298863
UZONOP,Cn1nc([N+](=O)[O-])c(N(CCO[N+](=O)[O-])[N+](=O)[O-])c1[N+](=O)[O-],1.7659,220.046,301.8875868,0.728900457
FUJXEO,NNC(N)=C([N+](=O)[O-])[N+](=O)[O-],1.8194,112.737,148.8042847,0.757619313
JAPKIU,NNc1c([N+](=O)[O-])cc([N+](=O)[O-])cc1[N+](=O)[O-],1.7751,222.501,511.0781203,0.722952414
KENFUH,O=[N+]([O-])c1nc(-c2nc([N+](=O)[O-])nn2C([N+](=O)[O-])[N+](=O)[O-])n(C([N+](=O)[O-])[N+](=O)[O-])n1,1.9535,284.489,368.9205566,0.771138921
HOCVEA,O=C1C(=O)c2cccc([N+](=O)[O-])c2-c2ccc([N+](=O)[O-])cc21,1.6817,219.697,294.2833479,0.746549207
VOGSUI,O=[N+]([O-])/N=c1\[nH]nc2nncnn12,1.8128,124.63,166.7470965,0.747419311
WERYEX,O=[N+]([O-])N=C1N[C@H]2NC(=N[N+](=O)[O-])N[C@H]2N1,1.8384,155.627,207.8019059,0.748919984
CATJIQ01,O=[N+]([O-])N1CC([N+](=O)[O-])([N+](=O)[O-])CN([N+](=O)[O-])CC([N+](=O)[O-])([N+](=O)[O-])C1,1.8697,253.769,341.0781698,0.744020059
DNTNAP10,O=[N+]([O-])c1cccc2cccc([N+](=O)[O-])c12,1.5888,164.108,227.8859491,0.720132157
TENZOD,Nn1nc([N+](=O)[O-])c([N+](=O)[O-])n1,1.8672,117.14,154.7596602,0.756915593
CUFRAZ,Nc1nc(-c2nonc2N[N+](=O)[O-])no1,1.8188,144.931,194.4956765,0.745163094
IDITAR,NC(=O)c1c(C(=O)O)cccc1[N+](=O)[O-],1.6914,152.774,206.2031164,0.74089084
EKELAH,O=[N+]([O-])/N=C1\NCCN1[N+](=O)[O-],1.7454,120.029,166.5301453,0.720764399
COGGAI,O=[N+]([O-])c1ncn(/N=N/n2cnc([N+](=O)[O-])n2)n1,1.8184,173.874,231.9817731,0.749515782
MEDNEQ,O=c1[nH]nc2n1-c1cc([N+](=O)[O-])cc([N+](=O)[O-])c1OC2,1.8111,192.384,255.8374612,0.751977443
CANXIA,O=[N+]([O-])C(CO)(CO)C(CO)(CO)[N+](=O)[O-],1.6889,171.276,236.0368182,0.725632558
NBFURX,O=C1/C(=N/O)Oc2ccc([N+](=O)[O-])cc21,1.6866,149.795,204.8053851,0.731401667
NOXBZA,O=C(OO)c1ccccc1[N+](=O)[O-],1.6133,135.902,188.382602,0.721414815
SUGFOP,O=[N+]([O-])C([C@H](O)[C@H](O)C([N+](=O)[O-])[N+](=O)[O-])[N+](=O)[O-],1.8177,180.599,246.6721332,0.732141883
DAVQOH,N#Cc1cc([N+](=O)[O-])cc2c1-c1c(C#N)cc([N+](=O)[O-])cc1C2=O,1.6305,239.03,325.9258951,0.73338757
GIMBOT,O=[N+]([O-])c1cc([N+](=O)[O-])c(/C=C/c2c([N+](=O)[O-])cc([N+](=O)[O-])cc2[N+](=O)[O-])c([N+](=O)[O-])c1,1.7442,314.656,428.4355328,0.734430214
NAYPAF,O=[N+]([O-])N1[C@H]2O[C@H]3[C@@H]1N([N+](=O)[O-])[C@H]1O[C@@H]2N([N+](=O)[O-])[C@H]1N3[N+](=O)[O-],1.9671,222.259,295.4828709,0.752189118
HEPFUD,Cc1nc2[nH]cnn2c(=O)c1[N+](=O)[O-],1.6583,140.638,195.3097511,0.720076694
OXONOG,O=[N+]([O-])Nc1nonc1[N+](=O)[N-]c1nonc1/N=N/c1nonc1[N-][N+](=O)c1nonc1N[N+](=O)[O-],1.8795,222.499,482.6894234,0.765464958
WADBEK,O=C(Nc1ccc([N+](=O)[O-])cc1)c1cc([N+](=O)[O-])cc([N+](=O)[O-])c1,1.6536,242.541,333.4448835,0.727379582
MUKCAX,O=[N+]([O-])c1cccc2c(O)n[nH]c12,1.6481,130.79,180.3909659,0.725036308
KEDWUO,Nc1cc(C(=O)O)c([N+](=O)[O-])cc1C(=O)O,1.6865,162.322,222.5515009,0.729368256
NTRACD,O=C(O)C[N+](=O)[O-],1.6882,74.753,103.2894848,0.723723234
KUBPAY,O=[N+]([O-])N1CCN=C1C([N+](=O)[O-])([N+](=O)[O-])[N+](=O)[O-],1.8122,174.777,241.9233235,0.722447912
NOMBEA01,Cc1c([N+](=O)[O-])cc(C(=O)O)cc1[N+](=O)[O-],1.6565,163.47,226.582014,0.721460619
LEHNIW,Cn1c(=O)[nH]cc([N+](=O)[O-])c1=O,1.6774,122.134,169.3150746,0.72134156
PUVSOO,O=[N+]([O-])c1ccc2c(cnn2[N+](=O)[O-])c1,1.6812,148.907,205.4743139,0.724698855
TEDYOT,O=[N+]([O-])/N=c1\[nH]nc(-c2n[nH]/c(=N\[N+](=O)[O-])o2)o1,1.9888,170.302,215.4318972,0.790514321
FEYLUQ01,O=[N+]([O-])N1CCN([N+](=O)[O-])c2nonc21,1.8291,144.756,196.1237664,0.738084948
NUBQOT,O=[N+]([O-])c1cc([N+](=O)[O-])n(-c2nonc2[N+](=O)[O-])n1,1.8156,181.153,247.8586767,0.730872134
SAQZAK,O=[N+]([O-])Cn1nnc([N+](=O)[O-])n1,1.799,118.394,160.6265911,0.737075967
YOPREA,O=c1[nH]c2c([N+](=O)[O-])cccc2c(=O)o1,1.707,147.483,202.3577988,0.728822911
HNIABZ20,O=[N+]([O-])c1cc([N+](=O)[O-])c(/N=N/c2c([N+](=O)[O-])cc([N+](=O)[O-])cc2[N+](=O)[O-])c([N+](=O)[O-])c1,1.7948,312.307,418.1985052,0.746791287
HIJBAD,O=c1[nH]c2cc([N+](=O)[O-])cc([N+](=O)[O-])c2[nH]c1=O,1.7976,175.092,232.8064792,0.75209247
LAPWOR,O=[N+]([O-])c1cc(-n2cnnn2)cc([N+](=O)[O-])c1[N+](=O)[O-],1.7943,193.864,260.0750414,0.745415627
MUQXIH01,O=C1c2ccccc2C(=O)c2c([N+](=O)[O-])ccc(O)c21,1.6178,201.345,276.1498581,0.729114986
ZUGPUM,O=[N+]([O-])N1C[C@]2([N+](=O)[O-])CN([N+](=O)[O-])C[C@]2([N+](=O)[O-])C1,1.8078,222.369,501.833594,0.735833483
GEMZAZ,O=C1N[C@H]2[C@H](NC(=O)N2[N+](=O)[O-])N1[N+](=O)[O-],1.9924,152.416,193.3804137,0.788166687
INEZUY,Nc1nn(N)nc1[N+](=O)[O-],1.7451,100.582,137.0649909,0.733827065
OLOBIA,N/C(=N\[N+](=O)[O-])N[N+](=O)[O-],1.8834,100.571,131.3901067,0.765438148
CURTER,N#[N+][N-]CN1C2C3N([N+](=O)[O-])C(C4N([N+](=O)[O-])C1C(N4[N+](=O)[O-])N3[N+](=O)[O-])N2[N+](=O)[O-],1.9254,292.65,386.4338692,0.757309396
HOYSEV,O=[N+]([O-])C(c1nonc1Oc1nonc1C([N+](=O)[O-])[N+](=O)[O-])[N+](=O)[O-],1.8389,237.907,326.8862544,0.727797504
JEXLUT,O=[N+]([O-])N1C[C@@H]2[C@@H](CN([N+](=O)[O-])CN2[N+](=O)[O-])N([N+](=O)[O-])C1,1.7911,217.034,298.5966287,0.726846786
NBZOAC03,O=C(O)c1ccc([N+](=O)[O-])cc1,1.6102,125.674,172.2497186,0.729603514
PIGLOI,Nc1c([N+](=O)[O-])cc([N+](=O)[O-])c(-n2cnc([N+](=O)[O-])c2[N+](=O)[O-])c1[N+](=O)[O-],1.7595,260.973,362.4204415,0.720083555
WEKGOJ,O=[N+]([O-])c1cc([N+](=O)[O-])nc([N+](=O)[O-])c1,1.75,147.609,203.0652221,0.726904383
YIKBUP,O=[N+]([O-])C1([N+](=O)[O-])CO[C@H](O)[C@H]1O,1.7924,131.004,179.7508712,0.728808707
HNIMOZ,O=[N+]([O-])c1cnc2n1CCO2,1.6677,111.278,154.3730593,0.720838212
DOLTAZ,O=c1c([N+](=O)[O-])c([O-])[nH]c2cccc[n+]12,1.7217,149.863,199.6809585,0.750512223
DEKZEZ,CC(=O)c1c(O)c([N+](=O)[O-])cc([N+](=O)[O-])c1O,1.6955,171.71,237.0358368,0.72440523
TEVDOQ,NC1=NO[N-]/C1=C1\C(c2nonc2[N+](=O)[O-])=NO[N+]1=O,1.8527,190.963,252.7691247,0.755483884
GOVKEH,Cc1cc(=O)n2nc(N)c([N+](=O)[O-])c2[nH]1,1.6686,152.61,208.0525882,0.733516469
CUGCOW,O=[N+]([O-])C12C3C4([N+](=O)[O-])C1([N+](=O)[O-])C1([N+](=O)[O-])C2([N+](=O)[O-])C3([N+](=O)[O-])C41[N+](=O)[O-],2.0235,270.592,343.8210527,0.787014052
CIGSUJ,O=[N+]([O-])OCc1nc(-c2noc(CO[N+](=O)[O-])n2)no1,1.8313,195.925,261.1630245,0.750201911
NUSTIH,O=[N+]([O-])c1cc([N+](=O)[O-])n(-c2nc[nH]n2)n1,1.7414,155.219,214.5836317,0.723349674
BINSAS,Nc1c([N+](=O)[O-])c2[n-]o[n+](=O)c2c2[n-]o[n+](=O)c12,1.9314,169.323,218.3899493,0.775324142
BAKXOB,O=[N+]([O-])c1cc2c(c([N+](=O)[O-])c1)-c1c(cc([N+](=O)[O-])cc1[N+](=O)[O-])C2,1.6944,244.254,339.1161626,0.720266466
YILNOY,O=[N+]([O-])C1=CNc2nnnn2[C@@H]1O,1.7503,126.299,174.6030228,0.723349447