name,smiles,Density,Vint,Veff,pc
EMAZUO,O=[N+]([O-])c1n[nH]c2c([N+](=O)[O-])cccc12,1.7035,148.498,202.7845122,0.732294584
OCHTET18,O=[N+]([O-])N1CN([N+](=O)[O-])CN([N+](=O)[O-])CN([N+](=O)[O-])C1,1.9194,222.366,472.6553981,0.781247778
GEFNAH01,O=c1oc2ccccc2c(O)c1[N+](=O)[O-],1.6609,150.069,206.9793798,0.725043239
GICTIV,O=[N+]([O-])n1cnc(/N=N/c2ncn([N+](=O)[O-])n2)n1,1.8294,174.877,230.5868899,0.758399578
NACXEU01,O=[N+]([O-])[C@]12[C@@H]3[C@]4([N+](=O)[O-])[C@H]1[C@]1([N+](=O)[O-])[C@H]2[C@@]3([N+](=O)[O-])[C@]41[N+](=O)[O-],1.9592,222.365,463.0536807,0.79744387
TEVHEH01,O=[N+]([O-])c1c[nH]c([N+](=O)[O-])n1,1.7891,108.286,146.6588945,0.738352763
OGOYER,NC(N)=C(c1ncnc(N)n1)[N+](=O)[O-],1.7061,142.239,191.8105638,0.741559782
KODJAO,O=C(O)/C=C/c1ccc([N+](=O)[O-])cc1[N+](=O)[O-],1.6359,176.133,241.6164229,0.728977765
CASBOQ01,O=[N+]([O-])c1c[nH]nc1-n1cnnn1,1.7683,128.195,170.0087236,0.754049541
UVEGEJ,O=[N+]([O-])Nc1nonc1C1=NOC(c2nonc2N[N+](=O)[O-])=NO1,1.816,225.54,312.7393596,0.721175615
QIMHID,N#[N+]/N=C(/N)[N-][N+](=O)[O-],1.7004,92.132,126.9805499,0.725559939
PAVZIX,Nc1ccc(C(=O)N/N=C/c2ccccc2[N+](=O)[O-])cc1,1.5473,221.22,304.8933079,0.725565285
UGUGIM,O=[N+]([O-])N1CN([N+](=O)[O-])[C@H]2[C@@H]1N([N+](=O)[O-])CN2[N+](=O)[O-],1.8614,192.209,262.3120473,0.732749418
ABENAX,COC(=O)c1cc([N+](=O)[O-])cc([N+](=O)[O-])c1O,1.6907,172.744,237.7087959,0.726704282
GIHFEI,N#Cc1cc([N+](=O)[O-])cc2c1-c1c(cc([N+](=O)[O-])cc1[N+](=O)[O-])C2=O,1.6986,246.147,332.4015556,0.740510975
JABMAD01,O=[N+]([O-])n1cc(-n2cnnn2)cn1,1.7274,128.66,174.0340546,0.739280598
LEQPIJ,O=[N+]([O-])N1C2C3N([N+](=O)[O-])C1C1N([N+](=O)[O-])C(C(N1[N+](=O)[O-])N3[N+](=O)[O-])N2CC([N+](=O)[O-])([N+](=O)[O-])[N+](=O)[O-],1.9052,357.738,484.6388323,0.738153809
GULGAV,O=[N+]([O-])c1nc[nH]c1[N+](=O)[O-],1.7804,108.625,147.3755494,0.737062562
LAPVIK,Nc1c([N+](=O)[O-])cc(-n2cnnn2)cc1[N+](=O)[O-],1.7577,177.751,237.1721709,0.749459767
ZUGPOJ,N#Cc1c([N+](=O)[O-])cccc1[N+](=O)[O-],1.6588,143.015,193.2217975,0.740159764
VUCBAW,O=[N+]([O-])C1([N+](=O)[O-])CC([N+](=O)[O-])([N+](=O)[O-])C1,1.8305,159.337,214.0980264,0.744224515
COGFUB,O=[N+]([O-])c1ncn(/N=N/n2cnc([N+](=O)[O-])c2[N+](=O)[O-])c1[N+](=O)[O-],1.7668,231.459,321.4481984,0.720050699
NTBZAM01,NC(=O)c1ccc([N+](=O)[O-])cc1,1.5878,127.547,173.6506112,0.734503605
UZOPAD,O=[N+]([O-])OCn1cc([N+](=O)[O-])c([N+](=O)[O-])n1,1.8291,157.713,211.5385669,0.745551992
CUMLEE,Nc1nonc1Nc1c([N+](=O)[O-])cc([N+](=O)[O-])cc1[N+](=O)[O-],1.7614,214.967,293.2259512,0.733110419
FEKVOG,Nc1c([N+](=O)[O-])c(N)c([N+](=O)[O-])c(-c2c([N+](=O)[O-])c(N)c([N+](=O)[O-])c(N)c2[N+](=O)[O-])c1[N+](=O)[O-],1.8179,324.237,442.1497681,0.733319394
NIOBPH,O=[N+]([O-])c1cc(-c2cc([N+](=O)[O-])c(O)c([N+](=O)[O-])c2)cc([N+](=O)[O-])c1O,1.79,256.715,339.5494616,0.756045964
URODIR,O=[N+]([O-])NCC(N[N+](=O)[O-])C(CN[N+](=O)[O-])N[N+](=O)[O-],1.7837,204.883,277.4917428,0.738339087
QUPSEC,O=C(O)c1ccc([N+](=O)[O-])cc1O,1.6853,133.313,180.334452,0.739254194
CIVVEI10,CC(=O)Oc1cc([N+](=O)[O-])cc2c(=O)[nH]c3c([N+](=O)[O-])cc([N+](=O)[O-])cc3c12,1.6871,276.447,381.9341886,0.723807944
JEHLAJ,O=C1N([N+](=O)[O-])[C@H]2[C@H](N([N+](=O)[O-])CCN2[N+](=O)[O-])N1[N+](=O)[O-],1.9691,210.739,271.5738154,0.775991602
KOMHAV,O=[N+]([O-])c1c[nH]cn1,1.6593,82.703,113.1110753,0.731166243
CUKCAM10,O=C(O)c1cc([N+](=O)[O-])cc([N+](=O)[O-])c1,1.6892,151.369,208.417427,0.726278038
KAHHUY,Nc1[nH]nc([N+](=O)[O-])c1[N+](=O)[O-],1.8707,118.575,153.5866398,0.772039809
NIPHAZ,N#[N+][N-]c1ccc([N+](=O)[O-])cc1,1.5724,125.575,173.2344863,0.724884535
HUKTUD,O=[N+]([O-])NCC(CN[N+](=O)[O-])(CN[N+](=O)[O-])CN[N+](=O)[O-],1.7568,217.304,294.9888492,0.736651574
SAWBUN,O=C(O)c1c([N+](=O)[O-])cc([N+](=O)[O-])cc1[N+](=O)[O-],1.785,176.277,239.0817583,0.737308447
AJOCAG,O=[N+]([O-])/N=c1\[nH]c(Cn2nc([N+](=O)[O-])c([N+](=O)[O-])c2[N+](=O)[O-])no1,1.842,229.05,311.0292735,0.736425859
HUKVAL,O=[N+]([O-])NCC(CN[N+](=O)[O-])N[N+](=O)[O-],1.752,155.058,212.362051,0.730158704
TNITAN,Nc1c([N+](=O)[O-])cc([N+](=O)[O-])c([N+](=O)[O-])c1[N+](=O)[O-],1.8599,184.195,243.7446895,0.755688259
WASRAJ,NNc1ccc([N+](=O)[O-])cc1[N+](=O)[O-],1.6579,143.365,198.3614241,0.722746374
BINSUM,O=C(NCC([N+](=O)[O-])([N+](=O)[O-])[N+](=O)[O-])C(=O)NCC([N+](=O)[O-])([N+](=O)[O-])[N+](=O)[O-],1.7971,275.463,382.554658,0.720061811
PICRAC,O=[N+]([O-])c1cc([N+](=O)[O-])c(O)c([N+](=O)[O-])c1,1.7712,156.626,214.6977096,0.729518728
IPUPOZ,N#Cc1cc([N+](=O)[O-])c2[n-]o[n+](=O)c2c1,1.6851,148.27,203.0124195,0.730349406
ELIGOX,O=c1n(CO[N+](=O)[O-])c2nc3nonc3nc2n1CO[N+](=O)[O-],1.7917,219.76,304.0140962,0.722861218
IHUFUP04,Nn1c(-c2nc([N+](=O)[O-])c([N+](=O)[O-])n2N)nc([N+](=O)[O-])c1[N+](=O)[O-],1.9493,230.166,293.070264,0.785361152
CUVXOG,O=[N+]([O-])C(CC([N+](=O)[O-])([N+](=O)[O-])[N+](=O)[O-])CC([N+](=O)[O-])([N+](=O)[O-])[N+](=O)[O-],1.9073,255.194,336.9342406,0.757400018
JEDSUG,O=C1N([N+](=O)[O-])CCN1[N+](=O)[O-],1.7879,118.906,163.4855259,0.727318209
NIMFOE,O=c1[nH]cc([N+](=O)[O-])c(=O)[nH]1,1.8062,109.111,144.3553968,0.755849815
WANVEP,O=[N+]([O-])OCc1onc(-c2noc(CO[N+](=O)[O-])c2CO[N+](=O)[O-])c1CO[N+](=O)[O-],1.7849,296.785,405.6462296,0.731635051
CIWMAW01,Nc1nc(N)c([N+](=O)[O-])nc1[N+](=O)[O-],1.8106,137.72,183.4578735,0.750690048
EYOVIX,COc1c([N+](=O)[O-])c2nonc2c2nonc12,1.7661,164.065,222.8551511,0.736195682
YOPKIA,O=[N+]([O-])OCCN(c1nc(N(CCO[N+](=O)[O-])[N+](=O)[O-])c([N+](=O)[O-])nc1[N+](=O)[O-])[N+](=O)[O-],1.8131,311.723,428.6567613,0.727208872
JAJBEB,O=[N+]([O-])C1([N+](=O)[O-])[C@H]2[C@H]3[C@H]4[C@@H]1[C@@H]1[C@@H]([C@H]3[C@H]2C1([N+](=O)[O-])[N+](=O)[O-])C4([N+](=O)[O-])[N+](=O)[O-],1.828,273.588,377.9227816,0.723925662
UFUXOI,Nc1c([N+](=O)[O-])n[nH]c1[N+](=O)[O-],1.8991,118.249,151.2898357,0.781605713
TOQMUH01,O=[N+]([O-])/N=c1\cccc[nH]1,1.6237,105.352,142.1979403,0.740882742
UVILAO,Nn1nc([N+](=O)[O-])c2c1c([N+](=O)[O-])nn2N,1.8342,154.833,206.4528597,0.749967814
VEGGUJ,O=C1N([N+](=O)[O-])CN([N+](=O)[O-])CN1[N+](=O)[O-],1.9311,222.451,469.79171,0.786310449
GUTNIS,O=C(O)c1cc([N+](=O)[O-])ccc1O,1.654,133.498,183.7470689,0.726531317
GANTAT01,O=[N+]([O-])c1n[nH]c([N+](=O)[O-])c1Nc1nnc2nncn2n1,1.8263,199.524,266.4497372,0.748824157
QIMGAU,O=c1ccc([N+](=O)[O-])ccc1O,1.6156,125.531,171.6739891,0.731217354
CTMTNA,O=[N+]([O-])N1CN([N+](=O)[O-])CN([N+](=O)[O-])C1,1.8051,148.516,204.260775,0.727090162
YABTEA,O=C(O)c1cccc2c1Oc1cccc([N+](=O)[O-])c1O2,1.6551,197.644,273.9346237,0.721500617